#------------------------------------------------------------------------------
#$Date: 2016-12-06 00:30:37 +0200 (Tue, 06 Dec 2016) $
#$Revision: 188923 $
#$URL: file:///home/coder/svn-repositories/cod/cif/1/54/47/1544739.cif $
#------------------------------------------------------------------------------
#
# This file is available in the Crystallography Open Database (COD),
# http://www.crystallography.net/
#
# All data on this site have been placed in the public domain by the
# contributors.
#
data_1544739
loop_
_publ_author_name
'Fujii, T.'
'Tanaka, K.'
'Marumo, F.'
'Noda, Y.'
_publ_section_title
;
 Structural behaviour of NiS2 up to 54 kbar :Sample at 32 kbar
;
_journal_name_full               'Mineralogical Journal'
_journal_page_first              448
_journal_page_last               454
_journal_volume                  13
_journal_year                    1987
_chemical_formula_sum            'Ni S2'
_chemical_name_common            NiS2
_chemical_name_mineral           'NiS2 at 32 kbar'
_space_group_IT_number           205
_space_group_name_H-M_alt        'P a -3'
_symmetry_space_group_name_Hall  '-P 2ac 2ab 3'
_symmetry_space_group_name_H-M   'P a -3'
_cell_angle_alpha                90
_cell_angle_beta                 90
_cell_angle_gamma                90
_cell_formula_units_Z            4
_cell_length_a                   5.6196(6)
_cell_length_b                   5.6196(6)
_cell_length_c                   5.6196(6)
_cell_volume                     177.47(3)
_cod_data_source_file            NiS2-32kb.cif
_cod_data_source_block           NiS2-32kbar
_cod_database_code               1544739
loop_
_space_group_symop_operation_xyz
'x, y, z'
'-x, -y, -z'
'-x+1/2, -y, z+1/2'
'x+1/2, y, -z+1/2'
'-x, y+1/2, -z+1/2'
'x, -y+1/2, z+1/2'
'x+1/2, -y+1/2, -z'
'-x+1/2, y+1/2, z'
'z, x, y'
'-z, -x, -y'
'z+1/2, -x+1/2, -y'
'-z+1/2, x+1/2, y'
'-z+1/2, -x, y+1/2'
'z+1/2, x, -y+1/2'
'-z, x+1/2, -y+1/2'
'z, -x+1/2, y+1/2'
'y, z, x'
'-y, -z, -x'
'-y, z+1/2, -x+1/2'
'y, -z+1/2, x+1/2'
'y+1/2, -z+1/2, -x'
'-y+1/2, z+1/2, x'
'-y+1/2, -z, x+1/2'
'y+1/2, z, -x+1/2'
loop_
_atom_site_label
_atom_site_occupancy
_atom_site_fract_x
_atom_site_fract_y
_atom_site_fract_z
_atom_site_adp_type
_atom_site_B_iso_or_equiv
_atom_site_type_symbol
Ni 1.0 0.000000 0.000000 0.000000 Biso 0.476110 Ni
S 1.0 0.39380(10) 0.39380(10) 0.39380(10) Biso 0.402680 S
loop_
_atom_site_aniso_label
_atom_site_aniso_U_11
_atom_site_aniso_U_22
_atom_site_aniso_U_33
_atom_site_aniso_U_12
_atom_site_aniso_U_13
_atom_site_aniso_U_23
Ni 0.00680 0.00680 0.00680 0.00000 0.00000 0.00000
S 0.00510 0.00510 0.00510 -0.00020 -0.00020 -0.00020
