#------------------------------------------------------------------------------
#$Date: 2016-02-13 21:28:24 +0200 (Sat, 13 Feb 2016) $
#$Revision: 176429 $
#$URL: svn://www.crystallography.net/cod/cif/1/53/88/1538817.cif $
#------------------------------------------------------------------------------
#
# This file is available in the Crystallography Open Database (COD),
# http://www.crystallography.net/
#
# All data on this site have been placed in the public domain by the
# contributors.
#
data_1538817
loop_
_publ_author_name
'Komarek, K.L.'
'Wessely, K.'
_publ_section_title
;
 Die Systeme Nickel - Selen und Kobalt - Nickel-Selen
;
_journal_name_full
;
Monatshefte fuer Chemie und verwandte Teile anderer Wissenschaften (109,1978-)
;
_journal_page_first              923
_journal_page_last               933
_journal_volume                  103
_journal_year                    1972
_chemical_formula_sum            'Ni Se'
_chemical_name_systematic        'Ni Se'
_space_group_IT_number           194
_symmetry_space_group_name_Hall  '-P 6c 2c'
_symmetry_space_group_name_H-M   'P 63/m m c'
_cell_angle_alpha                90
_cell_angle_beta                 90
_cell_angle_gamma                120
_cell_formula_units_Z            2
_cell_length_a                   3.658
_cell_length_b                   3.658
_cell_length_c                   5.354
_cell_volume                     62.044
_citation_journal_id_ASTM        MOCMB7
_cod_data_source_file            Komarek_MOCMB7_1972_1030.cif
_cod_data_source_block           Ni1Se1
_cod_original_cell_volume        62.04352
_cod_original_formula_sum        'Ni1 Se1'
_cod_database_code               1538817
loop_
_symmetry_equiv_pos_as_xyz
x,y,z
x-y,x,z+1/2
-y,x-y,z
-x,-y,z+1/2
-x+y,-x,z
y,-x+y,z+1/2
-y,-x,-z+1/2
x-y,-y,-z
x,x-y,-z+1/2
y,x,-z
-x+y,y,-z+1/2
-x,-x+y,-z
-x,-y,-z
-x+y,-x,-z-1/2
y,-x+y,-z
x,y,-z-1/2
x-y,x,-z
-y,x-y,-z-1/2
y,x,z-1/2
-x+y,y,z
-x,-x+y,z-1/2
-y,-x,z
x-y,-y,z-1/2
x,x-y,z
loop_
_atom_site_label
_atom_site_type_symbol
_atom_site_fract_x
_atom_site_fract_y
_atom_site_fract_z
_atom_site_occupancy
_atom_site_U_iso_or_equiv
Ni1 Ni 0 0 0 1 0.0
Se1 Se 0.3333 0.6667 0.25 1 0.0
