#------------------------------------------------------------------------------
#$Date: 2016-02-13 21:28:24 +0200 (Sat, 13 Feb 2016) $
#$Revision: 176429 $
#$URL: svn://www.crystallography.net/cod/cif/1/53/86/1538623.cif $
#------------------------------------------------------------------------------
#
# This file is available in the Crystallography Open Database (COD),
# http://www.crystallography.net/
#
# All data on this site have been placed in the public domain by the
# contributors.
#
data_1538623
loop_
_publ_author_name
'Juza, R.'
'Rabenau, A.'
'Pascher, G.'
_publ_section_title
;
 Ueber feste Loesungen in den Systemen Zn S - Mn S, Zn Se - Mn Se und Zn
 Te - Mn Te
;
_journal_name_full
'Zeitschrift fuer Anorganische und Allgemeine Chemie'
_journal_page_first              61
_journal_page_last               69
_journal_volume                  285
_journal_year                    1956
_chemical_formula_sum            'Mn Te'
_chemical_name_systematic        'Mn Te'
_space_group_IT_number           194
_symmetry_space_group_name_Hall  '-P 6c 2c'
_symmetry_space_group_name_H-M   'P 63/m m c'
_cell_angle_alpha                90
_cell_angle_beta                 90
_cell_angle_gamma                120
_cell_formula_units_Z            2
_cell_length_a                   4.127
_cell_length_b                   4.127
_cell_length_c                   6.696
_cell_volume                     98.768
_citation_journal_id_ASTM        ZAACAB
_cod_data_source_file            Juza_ZAACAB_1956_678.cif
_cod_data_source_block           Mn1Te1
_cod_original_cell_volume        98.76771
_cod_original_formula_sum        'Mn1 Te1'
_cod_database_code               1538623
loop_
_symmetry_equiv_pos_as_xyz
x,y,z
x-y,x,z+1/2
-y,x-y,z
-x,-y,z+1/2
-x+y,-x,z
y,-x+y,z+1/2
-y,-x,-z+1/2
x-y,-y,-z
x,x-y,-z+1/2
y,x,-z
-x+y,y,-z+1/2
-x,-x+y,-z
-x,-y,-z
-x+y,-x,-z-1/2
y,-x+y,-z
x,y,-z-1/2
x-y,x,-z
-y,x-y,-z-1/2
y,x,z-1/2
-x+y,y,z
-x,-x+y,z-1/2
-y,-x,z
x-y,-y,z-1/2
x,x-y,z
loop_
_atom_site_label
_atom_site_type_symbol
_atom_site_fract_x
_atom_site_fract_y
_atom_site_fract_z
_atom_site_occupancy
_atom_site_U_iso_or_equiv
Mn1 Mn+2 0 0 0 1 0.0
Te1 Te-2 0.3333 0.6667 0.25 1 0.0
