#------------------------------------------------------------------------------
#$Date: 2015-10-12 21:51:15 +0300 (Mon, 12 Oct 2015) $
#$Revision: 166756 $
#$URL: svn://www.crystallography.net/cod/cif/1/53/83/1538306.cif $
#------------------------------------------------------------------------------
#
# This file is available in the Crystallography Open Database (COD),
# http://www.crystallography.net/
#
# All data on this site have been placed in the public domain by the
# contributors.
#
data_1538306
loop_
_publ_author_name
'Hurley, G.F.'
'Brophy, J.H.'
_publ_section_title
;
 A constitution diagram for the niobium-ruthenium system above 1100 degree
;
_journal_name_full               'Journal of the Less-Common Metals'
_journal_page_first              267
_journal_page_last               277
_journal_volume                  7
_journal_year                    1964
_chemical_formula_sum            'Nb0.6 Ru1.4'
_chemical_name_systematic        '(Nb3 Ru7)0.2'
_space_group_IT_number           194
_symmetry_space_group_name_Hall  '-P 6c 2c'
_symmetry_space_group_name_H-M   'P 63/m m c'
_cell_angle_alpha                90
_cell_angle_beta                 90
_cell_angle_gamma                120
_cell_formula_units_Z            1
_cell_length_a                   2.762
_cell_length_b                   2.762
_cell_length_c                   4.432
_cell_volume                     29.280
_citation_journal_id_ASTM        JCOMAH
_cod_data_source_file            Hurley_JCOMAH_1964_840.cif
_cod_data_source_block           Nb0.6Ru1.4
_cod_original_cell_volume        29.28045
_cod_database_code               1538306
loop_
_symmetry_equiv_pos_as_xyz
x,y,z
x-y,x,z+1/2
-y,x-y,z
-x,-y,z+1/2
-x+y,-x,z
y,-x+y,z+1/2
-y,-x,-z+1/2
x-y,-y,-z
x,x-y,-z+1/2
y,x,-z
-x+y,y,-z+1/2
-x,-x+y,-z
-x,-y,-z
-x+y,-x,-z-1/2
y,-x+y,-z
x,y,-z-1/2
x-y,x,-z
-y,x-y,-z-1/2
y,x,z-1/2
-x+y,y,z
-x,-x+y,z-1/2
-y,-x,z
x-y,-y,z-1/2
x,x-y,z
loop_
_atom_site_label
_atom_site_type_symbol
_atom_site_fract_x
_atom_site_fract_y
_atom_site_fract_z
_atom_site_occupancy
_atom_site_U_iso_or_equiv
Ru1 Ru 0.3333 0.6667 0.25 0.71 0.0
Nb1 Nb 0.3333 0.6667 0.25 0.29 0.0
