#------------------------------------------------------------------------------
#$Date: 2016-02-13 21:28:24 +0200 (Sat, 13 Feb 2016) $
#$Revision: 176429 $
#$URL: svn://www.crystallography.net/cod/cif/1/53/88/1538893.cif $
#------------------------------------------------------------------------------
#
# This file is available in the Crystallography Open Database (COD),
# http://www.crystallography.net/
#
# All data on this site have been placed in the public domain by the
# contributors.
#
data_1538893
loop_
_publ_author_name
'Kurinobu, S.'
'Uchiyama, S.'
'Fujii, T.'
'Yamada, K.'
_publ_section_title
;
 A determination of vapor pressure-temperature relation of oxygen based on
 latent heat measurements at normal boiling point
;
_journal_name_full               'Japanese Journal of Applied Physics'
_journal_page_first              1073
_journal_page_last               1078
_journal_volume                  15
_journal_year                    1976
_chemical_formula_sum            'Mn Sb'
_chemical_name_systematic        'Mn Sb'
_space_group_IT_number           194
_symmetry_space_group_name_Hall  '-P 6c 2c'
_symmetry_space_group_name_H-M   'P 63/m m c'
_cell_angle_alpha                90
_cell_angle_beta                 90
_cell_angle_gamma                120
_cell_formula_units_Z            2
_cell_length_a                   4.12
_cell_length_b                   4.12
_cell_length_c                   5.74
_cell_volume                     84.380
_citation_journal_id_ASTM        JJAPA5
_cod_data_source_file            Kurinobu_JJAPA5_1976_644.cif
_cod_data_source_block           Mn1Sb1
_cod_original_cell_volume        84.37949
_cod_original_formula_sum        'Mn1 Sb1'
_cod_database_code               1538893
loop_
_symmetry_equiv_pos_as_xyz
x,y,z
x-y,x,z+1/2
-y,x-y,z
-x,-y,z+1/2
-x+y,-x,z
y,-x+y,z+1/2
-y,-x,-z+1/2
x-y,-y,-z
x,x-y,-z+1/2
y,x,-z
-x+y,y,-z+1/2
-x,-x+y,-z
-x,-y,-z
-x+y,-x,-z-1/2
y,-x+y,-z
x,y,-z-1/2
x-y,x,-z
-y,x-y,-z-1/2
y,x,z-1/2
-x+y,y,z
-x,-x+y,z-1/2
-y,-x,z
x-y,-y,z-1/2
x,x-y,z
loop_
_atom_site_label
_atom_site_type_symbol
_atom_site_fract_x
_atom_site_fract_y
_atom_site_fract_z
_atom_site_occupancy
_atom_site_U_iso_or_equiv
Mn1 Mn 0 0 0 1 0.0
Sb1 Sb 0.3333 0.6667 0.25 1 0.0
