#------------------------------------------------------------------------------
#$Date: 2016-02-13 21:28:24 +0200 (Sat, 13 Feb 2016) $
#$Revision: 176429 $
#$URL: svn://www.crystallography.net/cod/cif/1/53/86/1538676.cif $
#------------------------------------------------------------------------------
#
# This file is available in the Crystallography Open Database (COD),
# http://www.crystallography.net/
#
# All data on this site have been placed in the public domain by the
# contributors.
#
data_1538676
loop_
_publ_author_name
'Kimura, H.'
'Ito, A.'
_publ_section_title
;
 The platinum-niobium system
;
_journal_name_full
;
Transactions of the National Research Institute for Metals
;
_journal_page_first              27
_journal_page_last               34
_journal_volume                  3
_journal_year                    1961
_chemical_formula_sum            'Nb3 Pt'
_chemical_name_systematic        'Nb3 Pt'
_space_group_IT_number           223
_symmetry_space_group_name_Hall  '-P 4n 2 3'
_symmetry_space_group_name_H-M   'P m -3 n'
_cell_angle_alpha                90
_cell_angle_beta                 90
_cell_angle_gamma                90
_cell_formula_units_Z            2
_cell_length_a                   5.147
_cell_length_b                   5.147
_cell_length_c                   5.147
_cell_volume                     136.352
_citation_journal_id_ASTM        TNRMAF
_cod_data_source_file            Kimura_TNRMAF_1961_833.cif
_cod_data_source_block           Nb3Pt1
_cod_original_cell_volume        136.3523
_cod_original_formula_sum        'Nb3 Pt1'
_cod_database_code               1538676
loop_
_symmetry_equiv_pos_as_xyz
x,y,z
-y+1/2,x+1/2,z+1/2
-x,-y,z
y+1/2,-x+1/2,z+1/2
x,-y,-z
y+1/2,x+1/2,-z+1/2
-x,y,-z
-y+1/2,-x+1/2,-z+1/2
z,x,y
-x+1/2,z+1/2,y+1/2
-z,-x,y
x+1/2,-z+1/2,y+1/2
z,-x,-y
x+1/2,z+1/2,-y+1/2
-z,x,-y
-x+1/2,-z+1/2,-y+1/2
y,z,x
y,-z,-x
z+1/2,y+1/2,-x+1/2
-y,z,-x
-z+1/2,-y+1/2,-x+1/2
-y,-z,x
z+1/2,-y+1/2,x+1/2
-z+1/2,y+1/2,x+1/2
-x,-y,-z
y-1/2,-x-1/2,-z-1/2
x,y,-z
-y-1/2,x-1/2,-z-1/2
-x,y,z
-y-1/2,-x-1/2,z-1/2
x,-y,z
y-1/2,x-1/2,z-1/2
-z,-x,-y
x-1/2,-z-1/2,-y-1/2
z,x,-y
-x-1/2,z-1/2,-y-1/2
-z,x,y
-x-1/2,-z-1/2,y-1/2
z,-x,y
x-1/2,z-1/2,y-1/2
-y,-z,-x
-y,z,x
-z-1/2,-y-1/2,x-1/2
y,-z,x
z-1/2,y-1/2,x-1/2
y,z,-x
-z-1/2,y-1/2,-x-1/2
z-1/2,-y-1/2,-x-1/2
loop_
_atom_site_label
_atom_site_type_symbol
_atom_site_fract_x
_atom_site_fract_y
_atom_site_fract_z
_atom_site_occupancy
_atom_site_U_iso_or_equiv
Pt1 Pt 0 0 0 1 0.0
Nb1 Nb 0.25 0 0.5 1 0.0
