#------------------------------------------------------------------------------
#$Date: 2016-02-13 21:28:24 +0200 (Sat, 13 Feb 2016) $
#$Revision: 176429 $
#$URL: svn://www.crystallography.net/cod/cif/1/53/86/1538632.cif $
#------------------------------------------------------------------------------
#
# This file is available in the Crystallography Open Database (COD),
# http://www.crystallography.net/
#
# All data on this site have been placed in the public domain by the
# contributors.
#
data_1538632
loop_
_publ_author_name
'Liu Lingun'
_publ_section_title
;
 Lutetium: High pressure polymorph and compression
;
_journal_name_full               'Journal of Physics and Chemistry of Solids'
_journal_page_first              31
_journal_page_last               35
_journal_volume                  36
_journal_year                    1975
_chemical_formula_sum            Lu
_chemical_name_systematic        Lu
_space_group_IT_number           194
_symmetry_space_group_name_Hall  '-P 6c 2c'
_symmetry_space_group_name_H-M   'P 63/m m c'
_cell_angle_alpha                90
_cell_angle_beta                 90
_cell_angle_gamma                120
_cell_formula_units_Z            2
_cell_length_a                   3.5176
_cell_length_b                   3.5176
_cell_length_c                   5.5805
_cell_volume                     59.799
_citation_journal_id_ASTM        JPCSAW
_cod_data_source_file            LiuLingun_JPCSAW_1975_520.cif
_cod_data_source_block           Lu1
_cod_original_cell_volume        59.79938
_cod_original_formula_sum        Lu1
_cod_database_code               1538632
loop_
_symmetry_equiv_pos_as_xyz
x,y,z
x-y,x,z+1/2
-y,x-y,z
-x,-y,z+1/2
-x+y,-x,z
y,-x+y,z+1/2
-y,-x,-z+1/2
x-y,-y,-z
x,x-y,-z+1/2
y,x,-z
-x+y,y,-z+1/2
-x,-x+y,-z
-x,-y,-z
-x+y,-x,-z-1/2
y,-x+y,-z
x,y,-z-1/2
x-y,x,-z
-y,x-y,-z-1/2
y,x,z-1/2
-x+y,y,z
-x,-x+y,z-1/2
-y,-x,z
x-y,-y,z-1/2
x,x-y,z
loop_
_atom_site_label
_atom_site_type_symbol
_atom_site_fract_x
_atom_site_fract_y
_atom_site_fract_z
_atom_site_occupancy
_atom_site_U_iso_or_equiv
Lu1 Lu 0.3333 0.6667 0.25 1 0.0
