#------------------------------------------------------------------------------
#$Date: 2015-10-12 20:47:23 +0300 (Mon, 12 Oct 2015) $
#$Revision: 166590 $
#$URL: svn://www.crystallography.net/cod/cif/1/53/81/1538160.cif $
#------------------------------------------------------------------------------
#
# This file is available in the Crystallography Open Database (COD),
# http://www.crystallography.net/
#
# All data on this site have been placed in the public domain by the
# contributors.
#
data_1538160
loop_
_publ_author_name
'Henderson, B.'
'Willcox, R.J.M.'
_publ_section_title
;
 Lattice spacing relationships in hexagonal close-packed
 silcer-zinc-manganese alloys
;
_journal_name_full               'Philosophical Magazine, Serie 6 (1901-1925)'
_journal_page_first              829
_journal_page_last               846
_journal_volume                  9
_journal_year                    1964
_chemical_formula_sum            'Mn0.5 Zn1.5'
_chemical_name_systematic        '(Mn Zn3)0.5'
_space_group_IT_number           194
_symmetry_space_group_name_Hall  '-P 6c 2c'
_symmetry_space_group_name_H-M   'P 63/m m c'
_cell_angle_alpha                90
_cell_angle_beta                 90
_cell_angle_gamma                120
_cell_formula_units_Z            1
_cell_length_a                   2.7589
_cell_length_b                   2.7589
_cell_length_c                   4.4516
_cell_volume                     29.344
_citation_journal_id_ASTM        PHMAA4
_cod_data_source_file            Henderson_PHMAA4_1964_691.cif
_cod_data_source_block           Mn0.5Zn1.5
_cod_original_cell_volume        29.34396
_cod_database_code               1538160
loop_
_symmetry_equiv_pos_as_xyz
x,y,z
x-y,x,z+1/2
-y,x-y,z
-x,-y,z+1/2
-x+y,-x,z
y,-x+y,z+1/2
-y,-x,-z+1/2
x-y,-y,-z
x,x-y,-z+1/2
y,x,-z
-x+y,y,-z+1/2
-x,-x+y,-z
-x,-y,-z
-x+y,-x,-z-1/2
y,-x+y,-z
x,y,-z-1/2
x-y,x,-z
-y,x-y,-z-1/2
y,x,z-1/2
-x+y,y,z
-x,-x+y,z-1/2
-y,-x,z
x-y,-y,z-1/2
x,x-y,z
loop_
_atom_site_label
_atom_site_type_symbol
_atom_site_fract_x
_atom_site_fract_y
_atom_site_fract_z
_atom_site_occupancy
_atom_site_U_iso_or_equiv
Mn1 Mn 0.3333 0.6667 0.25 0.25 0.0
Zn1 Zn 0.3333 0.6667 0.25 0.75 0.0
