#------------------------------------------------------------------------------
#$Date: 2015-10-13 19:34:24 +0300 (Tue, 13 Oct 2015) $
#$Revision: 167477 $
#$URL: svn://www.crystallography.net/cod/cif/1/53/87/1538790.cif $
#------------------------------------------------------------------------------
#
# This file is available in the Crystallography Open Database (COD),
# http://www.crystallography.net/
#
# All data on this site have been placed in the public domain by the
# contributors.
#
data_1538790
loop_
_publ_author_name
'Kobzenko, G.F.'
'Chernogorenko, V.B.'
'Martinchuk, E.L.'
'Lyncak, K.A.'
'Skolozdra, R.V.'
_publ_section_title
;
 Phase diagram and some properties of the alloys of the system
 neodymium-antimony
;
_journal_name_full
;
Metallofizika (Akad. Nauk Ukraiskoi SSR, Inst. Metallofiziki)
;
_journal_page_first              87
_journal_page_last               93
_journal_volume                  41
_journal_year                    1972
_chemical_formula_sum            'Nd4 Sb3'
_chemical_name_systematic        'Nd4 Sb3'
_space_group_IT_number           220
_symmetry_space_group_name_Hall  'I -4bd 2c 3'
_symmetry_space_group_name_H-M   'I -4 3 d'
_cell_angle_alpha                90
_cell_angle_beta                 90
_cell_angle_gamma                90
_cell_formula_units_Z            4
_cell_length_a                   9.37
_cell_length_b                   9.37
_cell_length_c                   9.37
_cell_volume                     822.657
_citation_journal_id_ASTM        MFIZAC
_cod_data_source_file            Kobzenko_MFIZAC_1972_922.cif
_cod_data_source_block           Nd4Sb3
_cod_original_cell_volume        822.6569
_cod_database_code               1538790
loop_
_symmetry_equiv_pos_as_xyz
x,y,z
y+1/4,-x+3/4,-z+1/4
-x,-y+1/2,z
-y+3/4,x+3/4,-z+1/4
x,-y,-z+1/2
-y+1/4,-x+3/4,z+3/4
-x,y+1/2,-z+1/2
y+3/4,x+3/4,z+3/4
z,x,y
x+1/4,-z+3/4,-y+1/4
-z,-x+1/2,y
-x+3/4,z+3/4,-y+1/4
z,-x,-y+1/2
-x+1/4,-z+3/4,y+3/4
-z,x+1/2,-y+1/2
x+3/4,z+3/4,y+3/4
y,z,x
y,-z,-x+1/2
-z+1/4,-y+3/4,x+3/4
-y,z+1/2,-x+1/2
z+1/4,y+1/4,x+1/4
-y+1/2,-z,x+1/2
-z+1/4,y+1/4,-x+3/4
z+3/4,-y+1/4,-x+3/4
x+1/2,y+1/2,z+1/2
y+3/4,-x+5/4,-z+3/4
-x+1/2,-y+1,z+1/2
-y+5/4,x+5/4,-z+3/4
x+1/2,-y+1/2,-z+1
-y+3/4,-x+5/4,z+5/4
-x+1/2,y+1,-z+1
y+5/4,x+5/4,z+5/4
z+1/2,x+1/2,y+1/2
x+3/4,-z+5/4,-y+3/4
-z+1/2,-x+1,y+1/2
-x+5/4,z+5/4,-y+3/4
z+1/2,-x+1/2,-y+1
-x+3/4,-z+5/4,y+5/4
-z+1/2,x+1,-y+1
x+5/4,z+5/4,y+5/4
y+1/2,z+1/2,x+1/2
y+1/2,-z+1/2,-x+1
-z+3/4,-y+5/4,x+5/4
-y+1/2,z+1,-x+1
z+3/4,y+3/4,x+3/4
-y+1,-z+1/2,x+1
-z+3/4,y+3/4,-x+5/4
z+5/4,-y+3/4,-x+5/4
loop_
_atom_site_label
_atom_site_type_symbol
_atom_site_fract_x
_atom_site_fract_y
_atom_site_fract_z
_atom_site_occupancy
_atom_site_U_iso_or_equiv
Sb1 Sb 0.375 0 0.25 1 0.0
Nd1 Nd 0.074 0.074 0.074 1 0.0
