#------------------------------------------------------------------------------
#$Date: 2016-02-08 21:35:50 +0200 (Mon, 08 Feb 2016) $
#$Revision: 176270 $
#$URL: svn://www.crystallography.net/cod/cif/1/53/82/1538218.cif $
#------------------------------------------------------------------------------
#
# This file is available in the Crystallography Open Database (COD),
# http://www.crystallography.net/
#
# All data on this site have been placed in the public domain by the
# contributors.
#
data_1538218
loop_
_publ_author_name
'Ido, Tadashi'
'Matsui, Masaaki'
'Sato, Kiyoo'
'Adachi, Kengo'
_publ_section_title
;
 Non-existence of Ni~15~Sb in Ni-Sb system
;
_journal_coden_ASTM              TJIMAA
_journal_issue                   2
_journal_name_full
;
 Transactions of the Japan Institute of Metals
;
_journal_page_first              139
_journal_page_last               140
_journal_paper_doi               10.2320/matertrans1960.11.139
_journal_volume                  11
_journal_year                    1970
_chemical_formula_sum            'Ni3.72 Sb0.28'
_chemical_name_systematic        '(Ni93 Sb7)0.04'
_space_group_IT_number           225
_symmetry_space_group_name_Hall  '-F 4 2 3'
_symmetry_space_group_name_H-M   'F m -3 m'
_cell_angle_alpha                90
_cell_angle_beta                 90
_cell_angle_gamma                90
_cell_formula_units_Z            1
_cell_length_a                   3.587
_cell_length_b                   3.587
_cell_length_c                   3.587
_cell_volume                     46.152
_citation_journal_id_ASTM        TJIMAA
_cod_data_source_file            Ido_TJIMAA_1970_1014.cif
_cod_data_source_block           Ni3.72Sb0.28
_cod_original_cell_volume        46.15238
_cod_database_code               1538218
loop_
_symmetry_equiv_pos_as_xyz
x,y,z
-y,x,z
-x,-y,z
y,-x,z
x,-y,-z
y,x,-z
-x,y,-z
-y,-x,-z
z,x,y
-x,z,y
-z,-x,y
x,-z,y
z,-x,-y
x,z,-y
-z,x,-y
-x,-z,-y
y,z,x
y,-z,-x
z,y,-x
-y,z,-x
-z,-y,-x
-y,-z,x
z,-y,x
-z,y,x
-x,-y,-z
y,-x,-z
x,y,-z
-y,x,-z
-x,y,z
-y,-x,z
x,-y,z
y,x,z
-z,-x,-y
x,-z,-y
z,x,-y
-x,z,-y
-z,x,y
-x,-z,y
z,-x,y
x,z,y
-y,-z,-x
-y,z,x
-z,-y,x
y,-z,x
z,y,x
y,z,-x
-z,y,-x
z,-y,-x
x,y+1/2,z+1/2
-y,x+1/2,z+1/2
-x,-y+1/2,z+1/2
y,-x+1/2,z+1/2
x,-y+1/2,-z+1/2
y,x+1/2,-z+1/2
-x,y+1/2,-z+1/2
-y,-x+1/2,-z+1/2
z,x+1/2,y+1/2
-x,z+1/2,y+1/2
-z,-x+1/2,y+1/2
x,-z+1/2,y+1/2
z,-x+1/2,-y+1/2
x,z+1/2,-y+1/2
-z,x+1/2,-y+1/2
-x,-z+1/2,-y+1/2
y,z+1/2,x+1/2
y,-z+1/2,-x+1/2
z,y+1/2,-x+1/2
-y,z+1/2,-x+1/2
-z,-y+1/2,-x+1/2
-y,-z+1/2,x+1/2
z,-y+1/2,x+1/2
-z,y+1/2,x+1/2
-x,-y+1/2,-z+1/2
y,-x+1/2,-z+1/2
x,y+1/2,-z+1/2
-y,x+1/2,-z+1/2
-x,y+1/2,z+1/2
-y,-x+1/2,z+1/2
x,-y+1/2,z+1/2
y,x+1/2,z+1/2
-z,-x+1/2,-y+1/2
x,-z+1/2,-y+1/2
z,x+1/2,-y+1/2
-x,z+1/2,-y+1/2
-z,x+1/2,y+1/2
-x,-z+1/2,y+1/2
z,-x+1/2,y+1/2
x,z+1/2,y+1/2
-y,-z+1/2,-x+1/2
-y,z+1/2,x+1/2
-z,-y+1/2,x+1/2
y,-z+1/2,x+1/2
z,y+1/2,x+1/2
y,z+1/2,-x+1/2
-z,y+1/2,-x+1/2
z,-y+1/2,-x+1/2
x+1/2,y,z+1/2
-y+1/2,x,z+1/2
-x+1/2,-y,z+1/2
y+1/2,-x,z+1/2
x+1/2,-y,-z+1/2
y+1/2,x,-z+1/2
-x+1/2,y,-z+1/2
-y+1/2,-x,-z+1/2
z+1/2,x,y+1/2
-x+1/2,z,y+1/2
-z+1/2,-x,y+1/2
x+1/2,-z,y+1/2
z+1/2,-x,-y+1/2
x+1/2,z,-y+1/2
-z+1/2,x,-y+1/2
-x+1/2,-z,-y+1/2
y+1/2,z,x+1/2
y+1/2,-z,-x+1/2
z+1/2,y,-x+1/2
-y+1/2,z,-x+1/2
-z+1/2,-y,-x+1/2
-y+1/2,-z,x+1/2
z+1/2,-y,x+1/2
-z+1/2,y,x+1/2
-x+1/2,-y,-z+1/2
y+1/2,-x,-z+1/2
x+1/2,y,-z+1/2
-y+1/2,x,-z+1/2
-x+1/2,y,z+1/2
-y+1/2,-x,z+1/2
x+1/2,-y,z+1/2
y+1/2,x,z+1/2
-z+1/2,-x,-y+1/2
x+1/2,-z,-y+1/2
z+1/2,x,-y+1/2
-x+1/2,z,-y+1/2
-z+1/2,x,y+1/2
-x+1/2,-z,y+1/2
z+1/2,-x,y+1/2
x+1/2,z,y+1/2
-y+1/2,-z,-x+1/2
-y+1/2,z,x+1/2
-z+1/2,-y,x+1/2
y+1/2,-z,x+1/2
z+1/2,y,x+1/2
y+1/2,z,-x+1/2
-z+1/2,y,-x+1/2
z+1/2,-y,-x+1/2
x+1/2,y+1/2,z
-y+1/2,x+1/2,z
-x+1/2,-y+1/2,z
y+1/2,-x+1/2,z
x+1/2,-y+1/2,-z
y+1/2,x+1/2,-z
-x+1/2,y+1/2,-z
-y+1/2,-x+1/2,-z
z+1/2,x+1/2,y
-x+1/2,z+1/2,y
-z+1/2,-x+1/2,y
x+1/2,-z+1/2,y
z+1/2,-x+1/2,-y
x+1/2,z+1/2,-y
-z+1/2,x+1/2,-y
-x+1/2,-z+1/2,-y
y+1/2,z+1/2,x
y+1/2,-z+1/2,-x
z+1/2,y+1/2,-x
-y+1/2,z+1/2,-x
-z+1/2,-y+1/2,-x
-y+1/2,-z+1/2,x
z+1/2,-y+1/2,x
-z+1/2,y+1/2,x
-x+1/2,-y+1/2,-z
y+1/2,-x+1/2,-z
x+1/2,y+1/2,-z
-y+1/2,x+1/2,-z
-x+1/2,y+1/2,z
-y+1/2,-x+1/2,z
x+1/2,-y+1/2,z
y+1/2,x+1/2,z
-z+1/2,-x+1/2,-y
x+1/2,-z+1/2,-y
z+1/2,x+1/2,-y
-x+1/2,z+1/2,-y
-z+1/2,x+1/2,y
-x+1/2,-z+1/2,y
z+1/2,-x+1/2,y
x+1/2,z+1/2,y
-y+1/2,-z+1/2,-x
-y+1/2,z+1/2,x
-z+1/2,-y+1/2,x
y+1/2,-z+1/2,x
z+1/2,y+1/2,x
y+1/2,z+1/2,-x
-z+1/2,y+1/2,-x
z+1/2,-y+1/2,-x
loop_
_atom_site_label
_atom_site_type_symbol
_atom_site_fract_x
_atom_site_fract_y
_atom_site_fract_z
_atom_site_occupancy
_atom_site_U_iso_or_equiv
Ni1 Ni 0 0 0 0.93 0.0
Sb1 Sb 0 0 0 0.07 0.0
