#------------------------------------------------------------------------------
#$Date: 2016-02-13 21:28:24 +0200 (Sat, 13 Feb 2016) $
#$Revision: 176429 $
#$URL: svn://www.crystallography.net/cod/cif/1/53/87/1538706.cif $
#------------------------------------------------------------------------------
#
# This file is available in the Crystallography Open Database (COD),
# http://www.crystallography.net/
#
# All data on this site have been placed in the public domain by the
# contributors.
#
data_1538706
loop_
_publ_author_name
'Kirchmayr, H.R.'
_publ_section_title
;
 Gitterkonstanten und Strukturen der Verbindungen Dy Hg, Ho Hg, Er Hg; Dy
 Hg2, Ho Hg2, Er Hg2; Dy Hg3, Ho Hg3 und Er Hg3
;
_journal_name_full
;
Monatshefte fuer Chemie und verwandte Teile anderer Wissenschaften (109,1978-)
;
_journal_page_first              1667
_journal_page_last               1670
_journal_volume                  95
_journal_year                    1964
_chemical_formula_sum            'Hg Ho'
_chemical_name_systematic        'Hg Ho'
_space_group_IT_number           221
_symmetry_space_group_name_Hall  '-P 4 2 3'
_symmetry_space_group_name_H-M   'P m -3 m'
_cell_angle_alpha                90
_cell_angle_beta                 90
_cell_angle_gamma                90
_cell_formula_units_Z            1
_cell_length_a                   3.646
_cell_length_b                   3.646
_cell_length_c                   3.646
_cell_volume                     48.467
_citation_journal_id_ASTM        MOCMB7
_cod_data_source_file            Kirchmayr_MOCMB7_1964_134.cif
_cod_data_source_block           Hg1Ho1
_cod_original_cell_volume        48.46743
_cod_original_formula_sum        'Hg1 Ho1'
_cod_database_code               1538706
loop_
_symmetry_equiv_pos_as_xyz
x,y,z
-y,x,z
-x,-y,z
y,-x,z
x,-y,-z
y,x,-z
-x,y,-z
-y,-x,-z
z,x,y
-x,z,y
-z,-x,y
x,-z,y
z,-x,-y
x,z,-y
-z,x,-y
-x,-z,-y
y,z,x
y,-z,-x
z,y,-x
-y,z,-x
-z,-y,-x
-y,-z,x
z,-y,x
-z,y,x
-x,-y,-z
y,-x,-z
x,y,-z
-y,x,-z
-x,y,z
-y,-x,z
x,-y,z
y,x,z
-z,-x,-y
x,-z,-y
z,x,-y
-x,z,-y
-z,x,y
-x,-z,y
z,-x,y
x,z,y
-y,-z,-x
-y,z,x
-z,-y,x
y,-z,x
z,y,x
y,z,-x
-z,y,-x
z,-y,-x
loop_
_atom_site_label
_atom_site_type_symbol
_atom_site_fract_x
_atom_site_fract_y
_atom_site_fract_z
_atom_site_occupancy
_atom_site_U_iso_or_equiv
Ho1 Ho 0.5 0.5 0.5 1 0.0
Hg1 Hg 0 0 0 1 0.0
