#------------------------------------------------------------------------------
#$Date: 2016-02-13 21:28:24 +0200 (Sat, 13 Feb 2016) $
#$Revision: 176429 $
#$URL: svn://www.crystallography.net/cod/cif/1/53/87/1538702.cif $
#------------------------------------------------------------------------------
#
# This file is available in the Crystallography Open Database (COD),
# http://www.crystallography.net/
#
# All data on this site have been placed in the public domain by the
# contributors.
#
data_1538702
loop_
_publ_author_name
'Mandale, A.B.'
'Badrinaryanan, S.'
_publ_section_title
;
 X-ray photoelectron spectroscopic studies of the semimagnetic
 semiconductor system Pb1-x MnxTe
;
_journal_name_full
'Journal of electron spectroscopy and related phenomena'
_journal_page_first              87
_journal_page_last               95
_journal_volume                  53
_journal_year                    1990
_chemical_formula_sum            'Mn Te'
_chemical_name_systematic        'Mn Te'
_space_group_IT_number           194
_symmetry_space_group_name_Hall  '-P 6c 2c'
_symmetry_space_group_name_H-M   'P 63/m m c'
_cell_angle_alpha                90
_cell_angle_beta                 90
_cell_angle_gamma                120
_cell_formula_units_Z            2
_cell_length_a                   4.38
_cell_length_b                   4.38
_cell_length_c                   6.41
_cell_volume                     106.497
_citation_journal_id_ASTM        JESRAW
_cod_data_source_file            Mandale_JESRAW_1990_674.cif
_cod_data_source_block           Mn1Te1
_cod_original_cell_volume        106.4969
_cod_original_formula_sum        'Mn1 Te1'
_cod_database_code               1538702
loop_
_symmetry_equiv_pos_as_xyz
x,y,z
x-y,x,z+1/2
-y,x-y,z
-x,-y,z+1/2
-x+y,-x,z
y,-x+y,z+1/2
-y,-x,-z+1/2
x-y,-y,-z
x,x-y,-z+1/2
y,x,-z
-x+y,y,-z+1/2
-x,-x+y,-z
-x,-y,-z
-x+y,-x,-z-1/2
y,-x+y,-z
x,y,-z-1/2
x-y,x,-z
-y,x-y,-z-1/2
y,x,z-1/2
-x+y,y,z
-x,-x+y,z-1/2
-y,-x,z
x-y,-y,z-1/2
x,x-y,z
loop_
_atom_site_label
_atom_site_type_symbol
_atom_site_fract_x
_atom_site_fract_y
_atom_site_fract_z
_atom_site_occupancy
_atom_site_U_iso_or_equiv
Te1 Te 0.3333 0.6667 0.25 1 0.0
Mn1 Mn 0 0 0 1 0.0
