#------------------------------------------------------------------------------
#$Date: 2016-02-13 21:28:24 +0200 (Sat, 13 Feb 2016) $
#$Revision: 176429 $
#$URL: svn://www.crystallography.net/cod/cif/1/53/87/1538760.cif $
#------------------------------------------------------------------------------
#
# This file is available in the Crystallography Open Database (COD),
# http://www.crystallography.net/
#
# All data on this site have been placed in the public domain by the
# contributors.
#
data_1538760
loop_
_publ_author_name
'Ning Yuantao'
'Zhou Xinming'
'Xu Hua'
'Zhen Yun'
'Chen Nianyi'
'Zhu Jianzhong'
_publ_section_title
;
 The prediction and synthesis of some new intermetallic compounds between
 transition metals and rare earth metals
;
_journal_name_full               'Journal of the Less-Common Metals'
_journal_page_first              167
_journal_page_last               173
_journal_volume                  147
_journal_year                    1989
_chemical_formula_sum            'La Pt5'
_chemical_name_systematic        'La Pt5'
_space_group_IT_number           191
_symmetry_space_group_name_Hall  '-P 6 2'
_symmetry_space_group_name_H-M   'P 6/m m m'
_cell_angle_alpha                90
_cell_angle_beta                 90
_cell_angle_gamma                120
_cell_formula_units_Z            1
_cell_length_a                   5.386
_cell_length_b                   5.386
_cell_length_c                   4.376
_cell_volume                     109.936
_citation_journal_id_ASTM        JCOMAH
_cod_data_source_file            NingYuantao_JCOMAH_1989_429.cif
_cod_data_source_block           La1Pt5
_cod_original_cell_volume        109.9362
_cod_original_formula_sum        'La1 Pt5'
_cod_database_code               1538760
loop_
_symmetry_equiv_pos_as_xyz
x,y,z
x-y,x,z
-y,x-y,z
-x,-y,z
-x+y,-x,z
y,-x+y,z
-y,-x,-z
x-y,-y,-z
x,x-y,-z
y,x,-z
-x+y,y,-z
-x,-x+y,-z
-x,-y,-z
-x+y,-x,-z
y,-x+y,-z
x,y,-z
x-y,x,-z
-y,x-y,-z
y,x,z
-x+y,y,z
-x,-x+y,z
-y,-x,z
x-y,-y,z
x,x-y,z
loop_
_atom_site_label
_atom_site_type_symbol
_atom_site_fract_x
_atom_site_fract_y
_atom_site_fract_z
_atom_site_occupancy
_atom_site_U_iso_or_equiv
La1 La 0 0 0 1 0.0
Pt1 Pt 0.3333 0.6667 0 1 0.0
Pt2 Pt 0.5 0 0.5 1 0.0
