#------------------------------------------------------------------------------
#$Date: 2015-10-13 19:44:11 +0300 (Tue, 13 Oct 2015) $
#$Revision: 167515 $
#$URL: svn://www.crystallography.net/cod/cif/1/53/88/1538825.cif $
#------------------------------------------------------------------------------
#
# This file is available in the Crystallography Open Database (COD),
# http://www.crystallography.net/
#
# All data on this site have been placed in the public domain by the
# contributors.
#
data_1538825
loop_
_publ_author_name
'Kotur, B.Ya.'
'Ratush, G.M.'
_publ_section_title
;
 Isithermal section of the Sc-Hf-Si system at 1070 K
;
_journal_name_full
;
Inorganic Materials (USSR) (see: Izv.Akad.Nauk, Neorg.Mater.)
;
_journal_page_first              422
_journal_page_last               425
_journal_volume                  27
_journal_year                    1991
_chemical_formula_sum            'Sc0.999 Si1.665'
_chemical_name_systematic        '(Sc3 Si5)0.333'
_space_group_IT_number           191
_symmetry_space_group_name_Hall  '-P 6 2'
_symmetry_space_group_name_H-M   'P 6/m m m'
_cell_angle_alpha                90
_cell_angle_beta                 90
_cell_angle_gamma                120
_cell_formula_units_Z            1
_cell_length_a                   3.66
_cell_length_b                   3.66
_cell_length_c                   3.875
_cell_volume                     44.954
_citation_journal_id_ASTM        INOMAF
_cod_data_source_file            Kotur_INOMAF_1991_1891.cif
_cod_data_source_block           Sc0.999Si1.665
_cod_original_cell_volume        44.95361
_cod_database_code               1538825
loop_
_symmetry_equiv_pos_as_xyz
x,y,z
x-y,x,z
-y,x-y,z
-x,-y,z
-x+y,-x,z
y,-x+y,z
-y,-x,-z
x-y,-y,-z
x,x-y,-z
y,x,-z
-x+y,y,-z
-x,-x+y,-z
-x,-y,-z
-x+y,-x,-z
y,-x+y,-z
x,y,-z
x-y,x,-z
-y,x-y,-z
y,x,z
-x+y,y,z
-x,-x+y,z
-y,-x,z
x-y,-y,z
x,x-y,z
loop_
_atom_site_label
_atom_site_type_symbol
_atom_site_fract_x
_atom_site_fract_y
_atom_site_fract_z
_atom_site_occupancy
_atom_site_U_iso_or_equiv
Sc1 Sc 0 0 0 1 0.0
Si1 Si 0.3333 0.6667 0.5 0.8325 0.0
