#------------------------------------------------------------------------------
#$Date: 2016-02-13 21:28:24 +0200 (Sat, 13 Feb 2016) $
#$Revision: 176429 $
#$URL: svn://www.crystallography.net/cod/cif/1/53/81/1538113.cif $
#------------------------------------------------------------------------------
#
# This file is available in the Crystallography Open Database (COD),
# http://www.crystallography.net/
#
# All data on this site have been placed in the public domain by the
# contributors.
#
data_1538113
loop_
_publ_author_name
'Giessen, B.C.'
'Koch, R.'
'Grant, N.J.'
_publ_section_title
;
 The niobium(columbium)-iridium constitution diagram
;
_journal_name_full
'Transactions of the Metallurgical Society of Aime'
_journal_page_first              1268
_journal_page_last               1273
_journal_volume                  230
_journal_year                    1964
_chemical_formula_sum            'Ir Nb'
_chemical_name_systematic        'Ir Nb'
_space_group_IT_number           123
_symmetry_space_group_name_Hall  '-P 4 2'
_symmetry_space_group_name_H-M   'P 4/m m m'
_cell_angle_alpha                90
_cell_angle_beta                 90
_cell_angle_gamma                90
_cell_formula_units_Z            2
_cell_length_a                   4.031
_cell_length_b                   4.031
_cell_length_c                   3.861
_cell_volume                     62.737
_citation_journal_id_ASTM        TMSAAB
_cod_data_source_file            Giessen_TMSAAB_1964_332.cif
_cod_data_source_block           Ir1Nb1
_cod_original_cell_volume        62.73724
_cod_original_formula_sum        'Ir1 Nb1'
_cod_database_code               1538113
loop_
_symmetry_equiv_pos_as_xyz
x,y,z
-y,x,z
-x,-y,z
y,-x,z
x,-y,-z
y,x,-z
-x,y,-z
-y,-x,-z
-x,-y,-z
y,-x,-z
x,y,-z
-y,x,-z
-x,y,z
-y,-x,z
x,-y,z
y,x,z
loop_
_atom_site_label
_atom_site_type_symbol
_atom_site_fract_x
_atom_site_fract_y
_atom_site_fract_z
_atom_site_occupancy
_atom_site_U_iso_or_equiv
Ir2 Ir 0.5 0.5 0 1 0.0
Ir1 Ir 0 0 0 1 0.0
Nb1 Nb 0 0.5 0.5 1 0.0
