#------------------------------------------------------------------------------
#$Date: 2015-10-12 21:09:34 +0300 (Mon, 12 Oct 2015) $
#$Revision: 166696 $
#$URL: svn://www.crystallography.net/cod/cif/1/53/82/1538257.cif $
#------------------------------------------------------------------------------
#
# This file is available in the Crystallography Open Database (COD),
# http://www.crystallography.net/
#
# All data on this site have been placed in the public domain by the
# contributors.
#
data_1538257
loop_
_publ_author_name
'Gurler, R.'
'Pratt, J.N.'
_publ_section_title
;
 Some constitutional studies on the molybdenum-rhodium system
;
_journal_name_full               'Journal of Alloys Compd.'
_journal_page_first              321
_journal_page_last               330
_journal_volume                  177
_journal_year                    1991
_chemical_formula_sum            'Mo0.5 Rh1.5'
_chemical_name_systematic        '(Mo Rh3)0.5'
_space_group_IT_number           194
_symmetry_space_group_name_Hall  '-P 6c 2c'
_symmetry_space_group_name_H-M   'P 63/m m c'
_cell_angle_alpha                90
_cell_angle_beta                 90
_cell_angle_gamma                120
_cell_formula_units_Z            1
_cell_length_a                   2.73
_cell_length_b                   2.73
_cell_length_c                   4.3558
_cell_volume                     28.114
_citation_journal_id_ASTM        JALCEU
_cod_data_source_file            Gurler_JALCEU_1991_718.cif
_cod_data_source_block           Mo0.5Rh1.5
_cod_original_cell_volume        28.11408
_cod_database_code               1538257
loop_
_symmetry_equiv_pos_as_xyz
x,y,z
x-y,x,z+1/2
-y,x-y,z
-x,-y,z+1/2
-x+y,-x,z
y,-x+y,z+1/2
-y,-x,-z+1/2
x-y,-y,-z
x,x-y,-z+1/2
y,x,-z
-x+y,y,-z+1/2
-x,-x+y,-z
-x,-y,-z
-x+y,-x,-z-1/2
y,-x+y,-z
x,y,-z-1/2
x-y,x,-z
-y,x-y,-z-1/2
y,x,z-1/2
-x+y,y,z
-x,-x+y,z-1/2
-y,-x,z
x-y,-y,z-1/2
x,x-y,z
loop_
_atom_site_label
_atom_site_type_symbol
_atom_site_fract_x
_atom_site_fract_y
_atom_site_fract_z
_atom_site_occupancy
_atom_site_U_iso_or_equiv
Mo1 Mo 0.3333 0.6667 0.25 0.24 0.0
Rh1 Rh 0.3333 0.6667 0.25 0.76 0.0
