#------------------------------------------------------------------------------
#$Date: 2016-02-13 21:28:24 +0200 (Sat, 13 Feb 2016) $
#$Revision: 176429 $
#$URL: svn://www.crystallography.net/cod/cif/1/53/87/1538747.cif $
#------------------------------------------------------------------------------
#
# This file is available in the Crystallography Open Database (COD),
# http://www.crystallography.net/
#
# All data on this site have been placed in the public domain by the
# contributors.
#
data_1538747
loop_
_publ_author_name
'Niculescu, D.'
'Nistor, N.'
'Popa, M.'
'Ionescu, R.'
'Vantza, M.'
_publ_section_title
;
 Galvanomagnetic and thermoelectric properties of Hg Sx Te1-x solid
 solutions
;
_journal_name_full               'Journal of Materials Science'
_journal_page_first              385
_journal_page_last               388
_journal_volume                  5
_journal_year                    1970
_chemical_formula_sum            'Hg Te'
_chemical_name_systematic        'Hg Te'
_space_group_IT_number           216
_symmetry_space_group_name_Hall  'F -4 2 3'
_symmetry_space_group_name_H-M   'F -4 3 m'
_cell_angle_alpha                90
_cell_angle_beta                 90
_cell_angle_gamma                90
_cell_formula_units_Z            4
_cell_length_a                   6.47
_cell_length_b                   6.47
_cell_length_c                   6.47
_cell_volume                     270.840
_citation_journal_id_ASTM        JMTSAS
_cod_data_source_file            Niculescu_JMTSAS_1970_154.cif
_cod_data_source_block           Hg1Te1
_cod_original_cell_volume        270.84
_cod_original_formula_sum        'Hg1 Te1'
_cod_database_code               1538747
loop_
_symmetry_equiv_pos_as_xyz
x,y,z
y,-x,-z
-x,-y,z
-y,x,-z
x,-y,-z
-y,-x,z
-x,y,-z
y,x,z
z,x,y
x,-z,-y
-z,-x,y
-x,z,-y
z,-x,-y
-x,-z,y
-z,x,-y
x,z,y
y,z,x
y,-z,-x
-z,-y,x
-y,z,-x
z,y,x
-y,-z,x
-z,y,-x
z,-y,-x
x,y+1/2,z+1/2
y,-x+1/2,-z+1/2
-x,-y+1/2,z+1/2
-y,x+1/2,-z+1/2
x,-y+1/2,-z+1/2
-y,-x+1/2,z+1/2
-x,y+1/2,-z+1/2
y,x+1/2,z+1/2
z,x+1/2,y+1/2
x,-z+1/2,-y+1/2
-z,-x+1/2,y+1/2
-x,z+1/2,-y+1/2
z,-x+1/2,-y+1/2
-x,-z+1/2,y+1/2
-z,x+1/2,-y+1/2
x,z+1/2,y+1/2
y,z+1/2,x+1/2
y,-z+1/2,-x+1/2
-z,-y+1/2,x+1/2
-y,z+1/2,-x+1/2
z,y+1/2,x+1/2
-y,-z+1/2,x+1/2
-z,y+1/2,-x+1/2
z,-y+1/2,-x+1/2
x+1/2,y,z+1/2
y+1/2,-x,-z+1/2
-x+1/2,-y,z+1/2
-y+1/2,x,-z+1/2
x+1/2,-y,-z+1/2
-y+1/2,-x,z+1/2
-x+1/2,y,-z+1/2
y+1/2,x,z+1/2
z+1/2,x,y+1/2
x+1/2,-z,-y+1/2
-z+1/2,-x,y+1/2
-x+1/2,z,-y+1/2
z+1/2,-x,-y+1/2
-x+1/2,-z,y+1/2
-z+1/2,x,-y+1/2
x+1/2,z,y+1/2
y+1/2,z,x+1/2
y+1/2,-z,-x+1/2
-z+1/2,-y,x+1/2
-y+1/2,z,-x+1/2
z+1/2,y,x+1/2
-y+1/2,-z,x+1/2
-z+1/2,y,-x+1/2
z+1/2,-y,-x+1/2
x+1/2,y+1/2,z
y+1/2,-x+1/2,-z
-x+1/2,-y+1/2,z
-y+1/2,x+1/2,-z
x+1/2,-y+1/2,-z
-y+1/2,-x+1/2,z
-x+1/2,y+1/2,-z
y+1/2,x+1/2,z
z+1/2,x+1/2,y
x+1/2,-z+1/2,-y
-z+1/2,-x+1/2,y
-x+1/2,z+1/2,-y
z+1/2,-x+1/2,-y
-x+1/2,-z+1/2,y
-z+1/2,x+1/2,-y
x+1/2,z+1/2,y
y+1/2,z+1/2,x
y+1/2,-z+1/2,-x
-z+1/2,-y+1/2,x
-y+1/2,z+1/2,-x
z+1/2,y+1/2,x
-y+1/2,-z+1/2,x
-z+1/2,y+1/2,-x
z+1/2,-y+1/2,-x
loop_
_atom_site_label
_atom_site_type_symbol
_atom_site_fract_x
_atom_site_fract_y
_atom_site_fract_z
_atom_site_occupancy
_atom_site_U_iso_or_equiv
Te1 Te-2 0.25 0.25 0.25 1 0.0
Hg1 Hg+2 0 0 0 1 0.0
