#------------------------------------------------------------------------------
#$Date: 2015-10-12 20:06:50 +0300 (Mon, 12 Oct 2015) $
#$Revision: 166411 $
#$URL: svn://www.crystallography.net/cod/cif/1/53/80/1538011.cif $
#------------------------------------------------------------------------------
#
# This file is available in the Crystallography Open Database (COD),
# http://www.crystallography.net/
#
# All data on this site have been placed in the public domain by the
# contributors.
#
data_1538011
loop_
_publ_author_name
'Fjellvag, H.'
'Kjekshus, A.'
_publ_section_title
;
 Structural properties Co3 Sn2, Ni3 Sn2 and some ternary derivatives
;
_journal_name_full
'Acta Chemica Scandinavica, Series A: (28,1974-)'
_journal_page_first              23
_journal_page_last               30
_journal_volume                  40
_journal_year                    1986
_chemical_formula_sum            'Ni3.3 Sn2'
_chemical_name_systematic        'Ni3.3 Sn2'
_space_group_IT_number           62
_symmetry_space_group_name_Hall  '-P 2ac 2n'
_symmetry_space_group_name_H-M   'P n m a'
_cell_angle_alpha                90
_cell_angle_beta                 90
_cell_angle_gamma                90
_cell_formula_units_Z            4
_cell_length_a                   7.1589
_cell_length_b                   5.2118
_cell_length_c                   8.2664
_cell_volume                     308.426
_citation_journal_id_ASTM        ACAPCT
_cod_data_source_file            Fjellvag_ACAPCT_1986_1070.cif
_cod_data_source_block           Ni3.3Sn2
_cod_original_cell_volume        308.4256
_cod_database_code               1538011
loop_
_symmetry_equiv_pos_as_xyz
x,y,z
-x+1/2,-y,z+1/2
x+1/2,-y+1/2,-z+1/2
-x,y+1/2,-z
-x,-y,-z
x-1/2,y,-z-1/2
-x-1/2,y-1/2,z-1/2
x,-y-1/2,z
loop_
_atom_site_label
_atom_site_type_symbol
_atom_site_fract_x
_atom_site_fract_y
_atom_site_fract_z
_atom_site_occupancy
_atom_site_U_iso_or_equiv
Ni3 Ni 0.9167 0.25 0.625 0.3 0.0
Sn1 Sn 0.5833 0.25 0.625 1 0.0
Ni2 Ni 0.9167 0.25 0.125 1 0.0
Sn2 Sn 0.5833 0.25 0.125 1 0.0
Ni1 Ni 0.25 0 0.125 1 0.0
