#------------------------------------------------------------------------------
#$Date: 2016-02-13 21:28:24 +0200 (Sat, 13 Feb 2016) $
#$Revision: 176429 $
#$URL: svn://www.crystallography.net/cod/cif/1/53/82/1538227.cif $
#------------------------------------------------------------------------------
#
# This file is available in the Crystallography Open Database (COD),
# http://www.crystallography.net/
#
# All data on this site have been placed in the public domain by the
# contributors.
#
data_1538227
loop_
_publ_author_name
'Gronvold, F.'
'Rost, E.'
_publ_section_title
;
 On the Sulfides, Selenides and Tellurides of Palladium
;
_journal_name_full
'Acta Chemica Scandinavica (1-27,1973-42,1988)'
_journal_page_first              1620
_journal_page_last               1634
_journal_volume                  10
_journal_year                    1956
_chemical_formula_sum            'Pd Te'
_chemical_name_systematic        'Pd Te'
_space_group_IT_number           194
_symmetry_space_group_name_Hall  '-P 6c 2c'
_symmetry_space_group_name_H-M   'P 63/m m c'
_cell_angle_alpha                90
_cell_angle_beta                 90
_cell_angle_gamma                120
_cell_formula_units_Z            2
_cell_length_a                   4.1521
_cell_length_b                   4.1521
_cell_length_c                   5.6719
_cell_volume                     84.683
_citation_journal_id_ASTM        ACSAA4
_cod_data_source_file            Gronvold_ACSAA4_1956_1431.cif
_cod_data_source_block           Pd1Te1
_cod_original_cell_volume        84.68272
_cod_original_formula_sum        'Pd1 Te1'
_cod_database_code               1538227
loop_
_symmetry_equiv_pos_as_xyz
x,y,z
x-y,x,z+1/2
-y,x-y,z
-x,-y,z+1/2
-x+y,-x,z
y,-x+y,z+1/2
-y,-x,-z+1/2
x-y,-y,-z
x,x-y,-z+1/2
y,x,-z
-x+y,y,-z+1/2
-x,-x+y,-z
-x,-y,-z
-x+y,-x,-z-1/2
y,-x+y,-z
x,y,-z-1/2
x-y,x,-z
-y,x-y,-z-1/2
y,x,z-1/2
-x+y,y,z
-x,-x+y,z-1/2
-y,-x,z
x-y,-y,z-1/2
x,x-y,z
loop_
_atom_site_label
_atom_site_type_symbol
_atom_site_fract_x
_atom_site_fract_y
_atom_site_fract_z
_atom_site_occupancy
_atom_site_U_iso_or_equiv
Pd1 Pd+2 0 0 0 1 0.0
Te1 Te-2 0.3333 0.6667 0.25 1 0.0
