#------------------------------------------------------------------------------
#$Date: 2016-02-13 21:28:24 +0200 (Sat, 13 Feb 2016) $
#$Revision: 176429 $
#$URL: svn://www.crystallography.net/cod/cif/1/53/89/1538936.cif $
#------------------------------------------------------------------------------
#
# This file is available in the Crystallography Open Database (COD),
# http://www.crystallography.net/
#
# All data on this site have been placed in the public domain by the
# contributors.
#
data_1538936
loop_
_publ_author_name
'Muller, H.'
'Weymann, K.'
_publ_section_title
;
 Investigation of the ternary systems Nb - V - H and Ta - V - H
;
_journal_name_full               'Journal of the Less-Common Metals'
_journal_page_first              115
_journal_page_last               126
_journal_volume                  119
_journal_year                    1986
_chemical_formula_sum            'H2 V'
_chemical_name_systematic        'V H2'
_space_group_IT_number           225
_symmetry_space_group_name_Hall  '-F 4 2 3'
_symmetry_space_group_name_H-M   'F m -3 m'
_cell_angle_alpha                90
_cell_angle_beta                 90
_cell_angle_gamma                90
_cell_formula_units_Z            4
_cell_length_a                   4.271
_cell_length_b                   4.271
_cell_length_c                   4.271
_cell_volume                     77.909
_citation_journal_id_ASTM        JCOMAH
_cod_data_source_file            Muller_JCOMAH_1986_93.cif
_cod_data_source_block           H2V1
_cod_original_cell_volume        77.90919
_cod_original_formula_sum        'H2 V1'
_cod_database_code               1538936
loop_
_symmetry_equiv_pos_as_xyz
x,y,z
-y,x,z
-x,-y,z
y,-x,z
x,-y,-z
y,x,-z
-x,y,-z
-y,-x,-z
z,x,y
-x,z,y
-z,-x,y
x,-z,y
z,-x,-y
x,z,-y
-z,x,-y
-x,-z,-y
y,z,x
y,-z,-x
z,y,-x
-y,z,-x
-z,-y,-x
-y,-z,x
z,-y,x
-z,y,x
-x,-y,-z
y,-x,-z
x,y,-z
-y,x,-z
-x,y,z
-y,-x,z
x,-y,z
y,x,z
-z,-x,-y
x,-z,-y
z,x,-y
-x,z,-y
-z,x,y
-x,-z,y
z,-x,y
x,z,y
-y,-z,-x
-y,z,x
-z,-y,x
y,-z,x
z,y,x
y,z,-x
-z,y,-x
z,-y,-x
x,y+1/2,z+1/2
-y,x+1/2,z+1/2
-x,-y+1/2,z+1/2
y,-x+1/2,z+1/2
x,-y+1/2,-z+1/2
y,x+1/2,-z+1/2
-x,y+1/2,-z+1/2
-y,-x+1/2,-z+1/2
z,x+1/2,y+1/2
-x,z+1/2,y+1/2
-z,-x+1/2,y+1/2
x,-z+1/2,y+1/2
z,-x+1/2,-y+1/2
x,z+1/2,-y+1/2
-z,x+1/2,-y+1/2
-x,-z+1/2,-y+1/2
y,z+1/2,x+1/2
y,-z+1/2,-x+1/2
z,y+1/2,-x+1/2
-y,z+1/2,-x+1/2
-z,-y+1/2,-x+1/2
-y,-z+1/2,x+1/2
z,-y+1/2,x+1/2
-z,y+1/2,x+1/2
-x,-y+1/2,-z+1/2
y,-x+1/2,-z+1/2
x,y+1/2,-z+1/2
-y,x+1/2,-z+1/2
-x,y+1/2,z+1/2
-y,-x+1/2,z+1/2
x,-y+1/2,z+1/2
y,x+1/2,z+1/2
-z,-x+1/2,-y+1/2
x,-z+1/2,-y+1/2
z,x+1/2,-y+1/2
-x,z+1/2,-y+1/2
-z,x+1/2,y+1/2
-x,-z+1/2,y+1/2
z,-x+1/2,y+1/2
x,z+1/2,y+1/2
-y,-z+1/2,-x+1/2
-y,z+1/2,x+1/2
-z,-y+1/2,x+1/2
y,-z+1/2,x+1/2
z,y+1/2,x+1/2
y,z+1/2,-x+1/2
-z,y+1/2,-x+1/2
z,-y+1/2,-x+1/2
x+1/2,y,z+1/2
-y+1/2,x,z+1/2
-x+1/2,-y,z+1/2
y+1/2,-x,z+1/2
x+1/2,-y,-z+1/2
y+1/2,x,-z+1/2
-x+1/2,y,-z+1/2
-y+1/2,-x,-z+1/2
z+1/2,x,y+1/2
-x+1/2,z,y+1/2
-z+1/2,-x,y+1/2
x+1/2,-z,y+1/2
z+1/2,-x,-y+1/2
x+1/2,z,-y+1/2
-z+1/2,x,-y+1/2
-x+1/2,-z,-y+1/2
y+1/2,z,x+1/2
y+1/2,-z,-x+1/2
z+1/2,y,-x+1/2
-y+1/2,z,-x+1/2
-z+1/2,-y,-x+1/2
-y+1/2,-z,x+1/2
z+1/2,-y,x+1/2
-z+1/2,y,x+1/2
-x+1/2,-y,-z+1/2
y+1/2,-x,-z+1/2
x+1/2,y,-z+1/2
-y+1/2,x,-z+1/2
-x+1/2,y,z+1/2
-y+1/2,-x,z+1/2
x+1/2,-y,z+1/2
y+1/2,x,z+1/2
-z+1/2,-x,-y+1/2
x+1/2,-z,-y+1/2
z+1/2,x,-y+1/2
-x+1/2,z,-y+1/2
-z+1/2,x,y+1/2
-x+1/2,-z,y+1/2
z+1/2,-x,y+1/2
x+1/2,z,y+1/2
-y+1/2,-z,-x+1/2
-y+1/2,z,x+1/2
-z+1/2,-y,x+1/2
y+1/2,-z,x+1/2
z+1/2,y,x+1/2
y+1/2,z,-x+1/2
-z+1/2,y,-x+1/2
z+1/2,-y,-x+1/2
x+1/2,y+1/2,z
-y+1/2,x+1/2,z
-x+1/2,-y+1/2,z
y+1/2,-x+1/2,z
x+1/2,-y+1/2,-z
y+1/2,x+1/2,-z
-x+1/2,y+1/2,-z
-y+1/2,-x+1/2,-z
z+1/2,x+1/2,y
-x+1/2,z+1/2,y
-z+1/2,-x+1/2,y
x+1/2,-z+1/2,y
z+1/2,-x+1/2,-y
x+1/2,z+1/2,-y
-z+1/2,x+1/2,-y
-x+1/2,-z+1/2,-y
y+1/2,z+1/2,x
y+1/2,-z+1/2,-x
z+1/2,y+1/2,-x
-y+1/2,z+1/2,-x
-z+1/2,-y+1/2,-x
-y+1/2,-z+1/2,x
z+1/2,-y+1/2,x
-z+1/2,y+1/2,x
-x+1/2,-y+1/2,-z
y+1/2,-x+1/2,-z
x+1/2,y+1/2,-z
-y+1/2,x+1/2,-z
-x+1/2,y+1/2,z
-y+1/2,-x+1/2,z
x+1/2,-y+1/2,z
y+1/2,x+1/2,z
-z+1/2,-x+1/2,-y
x+1/2,-z+1/2,-y
z+1/2,x+1/2,-y
-x+1/2,z+1/2,-y
-z+1/2,x+1/2,y
-x+1/2,-z+1/2,y
z+1/2,-x+1/2,y
x+1/2,z+1/2,y
-y+1/2,-z+1/2,-x
-y+1/2,z+1/2,x
-z+1/2,-y+1/2,x
y+1/2,-z+1/2,x
z+1/2,y+1/2,x
y+1/2,z+1/2,-x
-z+1/2,y+1/2,-x
z+1/2,-y+1/2,-x
loop_
_atom_site_label
_atom_site_type_symbol
_atom_site_fract_x
_atom_site_fract_y
_atom_site_fract_z
_atom_site_occupancy
_atom_site_U_iso_or_equiv
V1 V 0 0 0 1 0.0
H1 H 0.25 0.25 0.25 1 0.0
