#------------------------------------------------------------------------------
#$Date: 2016-02-13 21:28:24 +0200 (Sat, 13 Feb 2016) $
#$Revision: 176429 $
#$URL: svn://www.crystallography.net/cod/cif/1/53/87/1538795.cif $
#------------------------------------------------------------------------------
#
# This file is available in the Crystallography Open Database (COD),
# http://www.crystallography.net/
#
# All data on this site have been placed in the public domain by the
# contributors.
#
data_1538795
loop_
_publ_author_name
'Nowotny, H.'
'Dettinger, U.'
'Schubert, K.'
_publ_section_title
;
 Zur Kenntnis des Aufbaus und der Kristallchemie einiger Edel-
 metallsysteme (Pd-Pb, Pd-Sn, Ir-Sn, Rh-Sn, Pt-Pb)
;
_journal_name_full               'Zeitschrift fuer Metallkunde'
_journal_page_first              137
_journal_page_last               145
_journal_volume                  37
_journal_year                    1946
_chemical_formula_sum            'Pb Pd3'
_chemical_name_systematic        'Pb Pd3'
_space_group_IT_number           221
_symmetry_space_group_name_Hall  '-P 4 2 3'
_symmetry_space_group_name_H-M   'P m -3 m'
_cell_angle_alpha                90
_cell_angle_beta                 90
_cell_angle_gamma                90
_cell_formula_units_Z            1
_cell_length_a                   4.0135
_cell_length_b                   4.0135
_cell_length_c                   4.0135
_cell_volume                     64.650
_citation_journal_id_ASTM        ZEMTAE
_cod_data_source_file            Nowotny_ZEMTAE_1946_1314.cif
_cod_data_source_block           Pb1Pd3
_cod_original_cell_volume        64.6502
_cod_original_formula_sum        'Pb1 Pd3'
_cod_database_code               1538795
loop_
_symmetry_equiv_pos_as_xyz
x,y,z
-y,x,z
-x,-y,z
y,-x,z
x,-y,-z
y,x,-z
-x,y,-z
-y,-x,-z
z,x,y
-x,z,y
-z,-x,y
x,-z,y
z,-x,-y
x,z,-y
-z,x,-y
-x,-z,-y
y,z,x
y,-z,-x
z,y,-x
-y,z,-x
-z,-y,-x
-y,-z,x
z,-y,x
-z,y,x
-x,-y,-z
y,-x,-z
x,y,-z
-y,x,-z
-x,y,z
-y,-x,z
x,-y,z
y,x,z
-z,-x,-y
x,-z,-y
z,x,-y
-x,z,-y
-z,x,y
-x,-z,y
z,-x,y
x,z,y
-y,-z,-x
-y,z,x
-z,-y,x
y,-z,x
z,y,x
y,z,-x
-z,y,-x
z,-y,-x
loop_
_atom_site_label
_atom_site_type_symbol
_atom_site_fract_x
_atom_site_fract_y
_atom_site_fract_z
_atom_site_occupancy
_atom_site_U_iso_or_equiv
Pb1 Pb 0 0 0 1 0.0
Pd1 Pd 0 0.5 0.5 1 0.0
