#------------------------------------------------------------------------------
#$Date: 2016-02-13 21:28:24 +0200 (Sat, 13 Feb 2016) $
#$Revision: 176429 $
#$URL: svn://www.crystallography.net/cod/cif/1/53/81/1538192.cif $
#------------------------------------------------------------------------------
#
# This file is available in the Crystallography Open Database (COD),
# http://www.crystallography.net/
#
# All data on this site have been placed in the public domain by the
# contributors.
#
data_1538192
loop_
_publ_author_name
'Iandelli, A.'
'Palenzona, A.'
_publ_section_title
;
 On the occurrence of the MX2 phases of the rare earths with the IB, IIB
 and IIIB group elements and their crystal structures
;
_journal_name_full               'Journal of the Less-Common Metals'
_journal_page_first              273
_journal_page_last               284
_journal_volume                  15
_journal_year                    1968
_chemical_formula_sum            'Hg2 La'
_chemical_name_systematic        'Hg2 La'
_space_group_IT_number           164
_symmetry_space_group_name_Hall  '-P 3 2"'
_symmetry_space_group_name_H-M   'P -3 m 1'
_cell_angle_alpha                90
_cell_angle_beta                 90
_cell_angle_gamma                120
_cell_formula_units_Z            1
_cell_length_a                   4.96
_cell_length_b                   4.96
_cell_length_c                   3.65
_cell_volume                     77.765
_citation_journal_id_ASTM        JCOMAH
_cod_data_source_file            Iandelli_JCOMAH_1968_138.cif
_cod_data_source_block           Hg2La1
_cod_original_cell_volume        77.76548
_cod_original_formula_sum        'Hg2 La1'
_cod_database_code               1538192
loop_
_symmetry_equiv_pos_as_xyz
x,y,z
-y,x-y,z
-x+y,-x,z
y,x,-z
-x,-x+y,-z
x-y,-y,-z
-x,-y,-z
y,-x+y,-z
x-y,x,-z
-y,-x,z
x,x-y,z
-x+y,y,z
loop_
_atom_site_label
_atom_site_type_symbol
_atom_site_fract_x
_atom_site_fract_y
_atom_site_fract_z
_atom_site_occupancy
_atom_site_U_iso_or_equiv
Hg1 Hg 0.3333 0.6667 0.45 1 0.0
La1 La 0 0 0 1 0.0
