#------------------------------------------------------------------------------
#$Date: 2015-10-13 20:35:14 +0300 (Tue, 13 Oct 2015) $
#$Revision: 167585 $
#$URL: svn://www.crystallography.net/cod/cif/1/53/88/1538887.cif $
#------------------------------------------------------------------------------
#
# This file is available in the Crystallography Open Database (COD),
# http://www.crystallography.net/
#
# All data on this site have been placed in the public domain by the
# contributors.
#
data_1538887
loop_
_publ_author_name
'Kubiak, R.'
'Zacharko, W.'
'Wolcyrz, M.'
_publ_section_title
;
 Crystallization, decomposition and superconductivity of beta - In3 Sn
;
_journal_name_full               'Journal of the Less-Common Metals'
_journal_page_first              263
_journal_page_last               269
_journal_volume                  65
_journal_year                    1979
_chemical_formula_sum            'In1.5 Sn0.5'
_chemical_name_systematic        '(In3 Sn)0.5'
_space_group_IT_number           139
_symmetry_space_group_name_Hall  '-I 4 2'
_symmetry_space_group_name_H-M   'I 4/m m m'
_cell_angle_alpha                90
_cell_angle_beta                 90
_cell_angle_gamma                90
_cell_formula_units_Z            1
_cell_length_a                   3.4715
_cell_length_b                   3.4715
_cell_length_c                   4.3869
_cell_volume                     52.868
_citation_journal_id_ASTM        JCOMAH
_cod_data_source_file            Kubiak_JCOMAH_1979_289.cif
_cod_data_source_block           In1.5Sn0.5
_cod_original_cell_volume        52.8679
_cod_database_code               1538887
loop_
_symmetry_equiv_pos_as_xyz
x,y,z
-y,x,z
-x,-y,z
y,-x,z
x,-y,-z
y,x,-z
-x,y,-z
-y,-x,-z
-x,-y,-z
y,-x,-z
x,y,-z
-y,x,-z
-x,y,z
-y,-x,z
x,-y,z
y,x,z
x+1/2,y+1/2,z+1/2
-y+1/2,x+1/2,z+1/2
-x+1/2,-y+1/2,z+1/2
y+1/2,-x+1/2,z+1/2
x+1/2,-y+1/2,-z+1/2
y+1/2,x+1/2,-z+1/2
-x+1/2,y+1/2,-z+1/2
-y+1/2,-x+1/2,-z+1/2
-x+1/2,-y+1/2,-z+1/2
y+1/2,-x+1/2,-z+1/2
x+1/2,y+1/2,-z+1/2
-y+1/2,x+1/2,-z+1/2
-x+1/2,y+1/2,z+1/2
-y+1/2,-x+1/2,z+1/2
x+1/2,-y+1/2,z+1/2
y+1/2,x+1/2,z+1/2
loop_
_atom_site_label
_atom_site_type_symbol
_atom_site_fract_x
_atom_site_fract_y
_atom_site_fract_z
_atom_site_occupancy
_atom_site_U_iso_or_equiv
Sn1 Sn 0 0 0 0.25 0.0
In1 In 0 0 0 0.75 0.0
