#------------------------------------------------------------------------------
#$Date: 2016-02-13 21:28:24 +0200 (Sat, 13 Feb 2016) $
#$Revision: 176429 $
#$URL: svn://www.crystallography.net/cod/cif/1/53/87/1538742.cif $
#------------------------------------------------------------------------------
#
# This file is available in the Crystallography Open Database (COD),
# http://www.crystallography.net/
#
# All data on this site have been placed in the public domain by the
# contributors.
#
data_1538742
loop_
_publ_author_name
'Nial, O.'
_publ_section_title
;
 X-ray studies on binary alloys of tin with transition metals
;
_journal_name_full               'Svensk Kemisk Tidskrift'
_journal_page_first              172
_journal_page_last               183
_journal_volume                  59
_journal_year                    1947
_chemical_formula_sum            'Rh Sn'
_chemical_name_systematic        'Rh Sn'
_space_group_IT_number           198
_symmetry_space_group_name_Hall  'P 2ac 2ab 3'
_symmetry_space_group_name_H-M   'P 21 3'
_cell_angle_alpha                90
_cell_angle_beta                 90
_cell_angle_gamma                90
_cell_formula_units_Z            4
_cell_length_a                   5.134
_cell_length_b                   5.134
_cell_length_c                   5.134
_cell_volume                     135.322
_citation_journal_id_ASTM        SKTIAF
_cod_data_source_file            Nial_SKTIAF_1947_1642.cif
_cod_data_source_block           Rh1Sn1
_cod_original_cell_volume        135.3217
_cod_original_formula_sum        'Rh1 Sn1'
_cod_database_code               1538742
loop_
_symmetry_equiv_pos_as_xyz
x,y,z
-x+1/2,-y,z+1/2
x+1/2,-y+1/2,-z
-x,y+1/2,-z+1/2
z,x,y
-z+1/2,-x,y+1/2
z+1/2,-x+1/2,-y
-z,x+1/2,-y+1/2
y,z,x
y+1/2,-z+1/2,-x
-y,z+1/2,-x+1/2
-y+1/2,-z,x+1/2
loop_
_atom_site_label
_atom_site_type_symbol
_atom_site_fract_x
_atom_site_fract_y
_atom_site_fract_z
_atom_site_occupancy
_atom_site_U_iso_or_equiv
Sn1 Sn 0.841 0.841 0.841 1 0.0
Rh1 Rh 0.142 0.142 0.142 1 0.0
