#------------------------------------------------------------------------------
#$Date: 2016-02-13 21:28:24 +0200 (Sat, 13 Feb 2016) $
#$Revision: 176429 $
#$URL: svn://www.crystallography.net/cod/cif/1/53/87/1538722.cif $
#------------------------------------------------------------------------------
#
# This file is available in the Crystallography Open Database (COD),
# http://www.crystallography.net/
#
# All data on this site have been placed in the public domain by the
# contributors.
#
data_1538722
loop_
_publ_author_name
'Kjekshus, A.'
'Rakke, T.'
'Andresen, A.F.'
_publ_section_title
;
 Pyrite like phases in the Rh-Se System
;
_journal_name_full
'Acta Chemica Scandinavica, Series A: (28,1974-)'
_journal_page_first              719
_journal_page_last               725
_journal_volume                  33
_journal_year                    1979
_chemical_formula_sum            'Rh Se2'
_chemical_name_systematic        'Rh Se2'
_space_group_IT_number           205
_symmetry_space_group_name_Hall  '-P 2ac 2ab 3'
_symmetry_space_group_name_H-M   'P a -3'
_cell_angle_alpha                90
_cell_angle_beta                 90
_cell_angle_gamma                90
_cell_formula_units_Z            4
_cell_length_a                   5.982
_cell_length_b                   5.982
_cell_length_c                   5.982
_cell_volume                     214.062
_citation_journal_id_ASTM        ACAPCT
_cod_data_source_file            Kjekshus_ACAPCT_1979_1624.cif
_cod_data_source_block           Rh1Se2
_cod_original_cell_volume        214.0618
_cod_original_formula_sum        'Rh1 Se2'
_cod_database_code               1538722
loop_
_symmetry_equiv_pos_as_xyz
x,y,z
-x+1/2,-y,z+1/2
x+1/2,-y+1/2,-z
-x,y+1/2,-z+1/2
z,x,y
-z+1/2,-x,y+1/2
z+1/2,-x+1/2,-y
-z,x+1/2,-y+1/2
y,z,x
y+1/2,-z+1/2,-x
-y,z+1/2,-x+1/2
-y+1/2,-z,x+1/2
-x,-y,-z
x-1/2,y,-z-1/2
-x-1/2,y-1/2,z
x,-y-1/2,z-1/2
-z,-x,-y
z-1/2,x,-y-1/2
-z-1/2,x-1/2,y
z,-x-1/2,y-1/2
-y,-z,-x
-y-1/2,z-1/2,x
y,-z-1/2,x-1/2
y-1/2,z,-x-1/2
loop_
_atom_site_label
_atom_site_type_symbol
_atom_site_fract_x
_atom_site_fract_y
_atom_site_fract_z
_atom_site_occupancy
_atom_site_U_iso_or_equiv
Rh1 Rh 0 0 0 1 0.0
Se1 Se 0.3827 0.3827 0.3827 1 0.0
