#------------------------------------------------------------------------------
#$Date: 2016-02-13 21:28:24 +0200 (Sat, 13 Feb 2016) $
#$Revision: 176429 $
#$URL: svn://www.crystallography.net/cod/cif/1/53/81/1538159.cif $
#------------------------------------------------------------------------------
#
# This file is available in the Crystallography Open Database (COD),
# http://www.crystallography.net/
#
# All data on this site have been placed in the public domain by the
# contributors.
#
data_1538159
loop_
_publ_author_name
'Iandelli, A.'
_publ_section_title
;
 Sugli arseniuri di uranio. II. La struttura cristallina di U As2 ed U P2
;
_journal_name_full
;
Atti della Accademia Nazionale dei Lincei, Classe di Fisiche, Matematiche e 
Naturali, Rendiconti
;
_journal_page_first              144
_journal_page_last               151
_journal_volume                  13
_journal_year                    1952
_chemical_formula_sum            'P2 U'
_chemical_name_systematic        'U P2'
_space_group_IT_number           129
_symmetry_space_group_name_Hall  'P 4ab 2ab -1ab'
_symmetry_space_group_name_H-M   'P 4/n m m :1'
_cell_angle_alpha                90
_cell_angle_beta                 90
_cell_angle_gamma                90
_cell_formula_units_Z            2
_cell_length_a                   3.8
_cell_length_b                   3.8
_cell_length_c                   7.762
_cell_volume                     112.083
_citation_journal_id_ASTM        AANLAW
_cod_data_source_file            Iandelli_AANLAW_1952_1297.cif
_cod_data_source_block           P2U1
_cod_original_cell_volume        112.0833
_cod_original_sg_symbol_Hall     '-P 4a 2a (x-1/4,y+1/4,z)'
_cod_original_formula_sum        'P2 U1'
_cod_database_code               1538159
loop_
_symmetry_equiv_pos_as_xyz
x,y,z
-y+1/2,x+1/2,z
-x,-y,z
y+1/2,-x+1/2,z
x+1/2,-y+1/2,-z
y,x,-z
-x+1/2,y+1/2,-z
-y,-x,-z
-x+1/2,-y+1/2,-z
y,-x,-z
x+1/2,y+1/2,-z
-y,x,-z
-x,y,z
-y+1/2,-x+1/2,z
x,-y,z
y+1/2,x+1/2,z
loop_
_atom_site_label
_atom_site_type_symbol
_atom_site_fract_x
_atom_site_fract_y
_atom_site_fract_z
_atom_site_occupancy
_atom_site_U_iso_or_equiv
U1 U+6 0 0.5 0.28 1 0.0
P2 P-3 0 0.5 0.644 1 0.0
P1 P-3 0 0 0 1 0.0
