#------------------------------------------------------------------------------
#$Date: 2016-02-13 21:28:24 +0200 (Sat, 13 Feb 2016) $
#$Revision: 176429 $
#$URL: svn://www.crystallography.net/cod/cif/1/53/86/1538645.cif $
#------------------------------------------------------------------------------
#
# This file is available in the Crystallography Open Database (COD),
# http://www.crystallography.net/
#
# All data on this site have been placed in the public domain by the
# contributors.
#
data_1538645
loop_
_publ_author_name
'Losev, V.G.'
'Kabalkina, S.S.'
'Vereshchagin, L.F.'
_publ_section_title
;
 Sn Sb polymorphic transformation under high pressure
;
_journal_name_full               'Soviet Physics - Solid State (New York)'
_journal_page_first              2374
_journal_page_last               2376
_journal_volume                  12
_journal_year                    1970
_chemical_formula_sum            'Sb Sn'
_chemical_name_systematic        'Sb Sn'
_space_group_IT_number           221
_symmetry_space_group_name_Hall  '-P 4 2 3'
_symmetry_space_group_name_H-M   'P m -3 m'
_cell_angle_alpha                90
_cell_angle_beta                 90
_cell_angle_gamma                90
_cell_formula_units_Z            1
_cell_length_a                   3.502
_cell_length_b                   3.502
_cell_length_c                   3.502
_cell_volume                     42.949
_citation_journal_id_ASTM        SPSSA7
_cod_data_source_file            Losev_SPSSA7_1970_1852.cif
_cod_data_source_block           Sb1Sn1
_cod_original_cell_volume        42.94854
_cod_original_formula_sum        'Sb1 Sn1'
_cod_database_code               1538645
loop_
_symmetry_equiv_pos_as_xyz
x,y,z
-y,x,z
-x,-y,z
y,-x,z
x,-y,-z
y,x,-z
-x,y,-z
-y,-x,-z
z,x,y
-x,z,y
-z,-x,y
x,-z,y
z,-x,-y
x,z,-y
-z,x,-y
-x,-z,-y
y,z,x
y,-z,-x
z,y,-x
-y,z,-x
-z,-y,-x
-y,-z,x
z,-y,x
-z,y,x
-x,-y,-z
y,-x,-z
x,y,-z
-y,x,-z
-x,y,z
-y,-x,z
x,-y,z
y,x,z
-z,-x,-y
x,-z,-y
z,x,-y
-x,z,-y
-z,x,y
-x,-z,y
z,-x,y
x,z,y
-y,-z,-x
-y,z,x
-z,-y,x
y,-z,x
z,y,x
y,z,-x
-z,y,-x
z,-y,-x
loop_
_atom_site_label
_atom_site_type_symbol
_atom_site_fract_x
_atom_site_fract_y
_atom_site_fract_z
_atom_site_occupancy
_atom_site_U_iso_or_equiv
Sn1 Sn 0.5 0.5 0.5 1 0.0
Sb1 Sb 0 0 0 1 0.0
