#------------------------------------------------------------------------------
#$Date: 2016-02-13 21:28:24 +0200 (Sat, 13 Feb 2016) $
#$Revision: 176429 $
#$URL: svn://www.crystallography.net/cod/cif/1/53/88/1538826.cif $
#------------------------------------------------------------------------------
#
# This file is available in the Crystallography Open Database (COD),
# http://www.crystallography.net/
#
# All data on this site have been placed in the public domain by the
# contributors.
#
data_1538826
loop_
_publ_author_name
'Kouvel, J.S.'
'Hartelius, C.C.'
'Osika, L.M.'
_publ_section_title
;
 Magnetic properties and crystal-structure transfomations of the ordered
 alloy (Mn Rh)
;
_journal_name_full               'Journal of Applied Physics'
_journal_page_first              1095
_journal_page_last               1096
_journal_volume                  34
_journal_year                    1963
_chemical_formula_sum            'Mn Rh'
_chemical_name_systematic        'Mn Rh'
_space_group_IT_number           123
_symmetry_space_group_name_Hall  '-P 4 2'
_symmetry_space_group_name_H-M   'P 4/m m m'
_cell_angle_alpha                90
_cell_angle_beta                 90
_cell_angle_gamma                90
_cell_formula_units_Z            2
_cell_length_a                   3.93
_cell_length_b                   3.93
_cell_length_c                   3.56
_cell_volume                     54.984
_citation_journal_id_ASTM        JAPIAU
_cod_data_source_file            Kouvel_JAPIAU_1963_634.cif
_cod_data_source_block           Mn1Rh1
_cod_original_cell_volume        54.98384
_cod_original_formula_sum        'Mn1 Rh1'
_cod_database_code               1538826
loop_
_symmetry_equiv_pos_as_xyz
x,y,z
-y,x,z
-x,-y,z
y,-x,z
x,-y,-z
y,x,-z
-x,y,-z
-y,-x,-z
-x,-y,-z
y,-x,-z
x,y,-z
-y,x,-z
-x,y,z
-y,-x,z
x,-y,z
y,x,z
loop_
_atom_site_label
_atom_site_type_symbol
_atom_site_fract_x
_atom_site_fract_y
_atom_site_fract_z
_atom_site_occupancy
_atom_site_U_iso_or_equiv
Mn2 Mn 0.5 0.5 0 1 0.0
Rh1 Rh 0 0.5 0.5 1 0.0
Mn1 Mn 0 0 0 1 0.0
