#------------------------------------------------------------------------------
#$Date: 2016-02-13 21:28:24 +0200 (Sat, 13 Feb 2016) $
#$Revision: 176429 $
#$URL: svn://www.crystallography.net/cod/cif/1/53/81/1538101.cif $
#------------------------------------------------------------------------------
#
# This file is available in the Crystallography Open Database (COD),
# http://www.crystallography.net/
#
# All data on this site have been placed in the public domain by the
# contributors.
#
data_1538101
loop_
_publ_author_name
'Giessen, B.C.'
'Parker, D.P.'
'Grant, N.J.'
'Manuszewski, R.C.'
'Waterstrat, R.M.'
_publ_section_title
;
 The niobium (columbium)-palladium constitution diagram
;
_journal_name_full
;
Metallurgical Transactions A: Physical Metallurgy and Materials Science
;
_journal_page_first              709
_journal_page_last               715
_journal_volume                  11
_journal_year                    1980
_chemical_formula_sum            'Nb Pd3'
_chemical_name_systematic        'Nb Pd3'
_space_group_IT_number           139
_symmetry_space_group_name_Hall  '-I 4 2'
_symmetry_space_group_name_H-M   'I 4/m m m'
_cell_angle_alpha                90
_cell_angle_beta                 90
_cell_angle_gamma                90
_cell_formula_units_Z            2
_cell_length_a                   3.895
_cell_length_b                   3.895
_cell_length_c                   7.913
_cell_volume                     120.048
_citation_journal_id_ASTM        MTTABN
_cod_data_source_file            Giessen_MTTABN_1980_828.cif
_cod_data_source_block           Nb1Pd3
_cod_original_cell_volume        120.0483
_cod_original_formula_sum        'Nb1 Pd3'
_cod_database_code               1538101
loop_
_symmetry_equiv_pos_as_xyz
x,y,z
-y,x,z
-x,-y,z
y,-x,z
x,-y,-z
y,x,-z
-x,y,-z
-y,-x,-z
-x,-y,-z
y,-x,-z
x,y,-z
-y,x,-z
-x,y,z
-y,-x,z
x,-y,z
y,x,z
x+1/2,y+1/2,z+1/2
-y+1/2,x+1/2,z+1/2
-x+1/2,-y+1/2,z+1/2
y+1/2,-x+1/2,z+1/2
x+1/2,-y+1/2,-z+1/2
y+1/2,x+1/2,-z+1/2
-x+1/2,y+1/2,-z+1/2
-y+1/2,-x+1/2,-z+1/2
-x+1/2,-y+1/2,-z+1/2
y+1/2,-x+1/2,-z+1/2
x+1/2,y+1/2,-z+1/2
-y+1/2,x+1/2,-z+1/2
-x+1/2,y+1/2,z+1/2
-y+1/2,-x+1/2,z+1/2
x+1/2,-y+1/2,z+1/2
y+1/2,x+1/2,z+1/2
loop_
_atom_site_label
_atom_site_type_symbol
_atom_site_fract_x
_atom_site_fract_y
_atom_site_fract_z
_atom_site_occupancy
_atom_site_U_iso_or_equiv
Nb1 Nb 0 0 0 1 0.0
Pd2 Pd 0 0.5 0.25 1 0.0
Pd1 Pd 0 0 0.5 1 0.0
