#------------------------------------------------------------------------------
#$Date: 2016-02-13 21:28:24 +0200 (Sat, 13 Feb 2016) $
#$Revision: 176429 $
#$URL: svn://www.crystallography.net/cod/cif/1/53/84/1538449.cif $
#------------------------------------------------------------------------------
#
# This file is available in the Crystallography Open Database (COD),
# http://www.crystallography.net/
#
# All data on this site have been placed in the public domain by the
# contributors.
#
data_1538449
loop_
_publ_author_name
'Oswald, H.R.'
'Jaggi, H.'
_publ_section_title
;
 Zur Struktur der wasserfreien Zinkhalogenide. I. Die wasserfreien
 Zinkchloride
;
_journal_name_full               'Helvetica Chimica Acta'
_journal_page_first              72
_journal_page_last               77
_journal_volume                  43
_journal_year                    1960
_chemical_formula_sum            'Cl2 Zn'
_chemical_name_systematic        'Zn Cl2'
_space_group_IT_number           122
_symmetry_space_group_name_Hall  'I -4 2bw'
_symmetry_space_group_name_H-M   'I -4 2 d'
_cell_angle_alpha                90
_cell_angle_beta                 90
_cell_angle_gamma                90
_cell_formula_units_Z            4
_cell_length_a                   5.398
_cell_length_b                   5.398
_cell_length_c                   10.33
_cell_volume                     301.000
_citation_journal_id_ASTM        HCACAV
_cod_data_source_file            Oswald_HCACAV_1960_2000.cif
_cod_data_source_block           Cl2Zn1
_cod_original_cell_volume        300.9997
_cod_original_formula_sum        'Cl2 Zn1'
_cod_database_code               1538449
loop_
_symmetry_equiv_pos_as_xyz
x,y,z
y,-x,-z
-x,-y,z
-y,x,-z
x,-y+1/2,-z+1/4
-y+1/2,-x,z+3/4
-x,y+1/2,-z+1/4
y+1/2,x,z+3/4
x+1/2,y+1/2,z+1/2
y+1/2,-x+1/2,-z+1/2
-x+1/2,-y+1/2,z+1/2
-y+1/2,x+1/2,-z+1/2
x+1/2,-y+1,-z+3/4
-y+1,-x+1/2,z+5/4
-x+1/2,y+1,-z+3/4
y+1,x+1/2,z+5/4
loop_
_atom_site_label
_atom_site_type_symbol
_atom_site_fract_x
_atom_site_fract_y
_atom_site_fract_z
_atom_site_occupancy
_atom_site_U_iso_or_equiv
Cl1 Cl-1 0.25 0.25 0.125 1 0.0
Zn1 Zn+2 0 0 0 1 0.0
