#------------------------------------------------------------------------------
#$Date: 2016-02-13 21:28:24 +0200 (Sat, 13 Feb 2016) $
#$Revision: 176429 $
#$URL: svn://www.crystallography.net/cod/cif/1/53/86/1538644.cif $
#------------------------------------------------------------------------------
#
# This file is available in the Crystallography Open Database (COD),
# http://www.crystallography.net/
#
# All data on this site have been placed in the public domain by the
# contributors.
#
data_1538644
loop_
_publ_author_name
'Karlsson, N.'
_publ_section_title
;
 An X-ray study of the phases in the copper-titanium system
;
_journal_name_full               'Journal of the Institute of Metals'
_journal_page_first              391
_journal_page_last               405
_journal_volume                  79
_journal_year                    1951
_chemical_formula_sum            'Ni3 Ta'
_chemical_name_systematic        'Ni3 Ta'
_space_group_IT_number           59
_symmetry_space_group_name_Hall  'P 2 2ab -1ab'
_symmetry_space_group_name_H-M   'P m m n :1'
_cell_angle_alpha                90
_cell_angle_beta                 90
_cell_angle_gamma                90
_cell_formula_units_Z            2
_cell_length_a                   5.114
_cell_length_b                   4.25
_cell_length_c                   4.542
_cell_volume                     98.718
_citation_journal_id_ASTM        JIMEAP
_cod_data_source_file            Karlsson_JIMEAP_1951_1092.cif
_cod_data_source_block           Ni3Ta1
_cod_original_cell_volume        98.71809
_cod_original_sg_symbol_Hall     '-P 2ab 2a (x-1/4,y-1/4,z)'
_cod_original_formula_sum        'Ni3 Ta1'
_cod_database_code               1538644
loop_
_symmetry_equiv_pos_as_xyz
x,y,z
-x,-y,z
x+1/2,-y+1/2,-z
-x+1/2,y+1/2,-z
-x+1/2,-y+1/2,-z
x+1/2,y+1/2,-z
-x,y,z
x,-y,z
loop_
_atom_site_label
_atom_site_type_symbol
_atom_site_fract_x
_atom_site_fract_y
_atom_site_fract_z
_atom_site_occupancy
_atom_site_U_iso_or_equiv
Ni1 Ni 0 0.5 0.345 1 0.0
Ni2 Ni 0.25 0 0.155 1 0.0
Ta1 Ta 0 0 0.655 1 0.0
