#------------------------------------------------------------------------------
#$Date: 2016-02-13 21:28:24 +0200 (Sat, 13 Feb 2016) $
#$Revision: 176429 $
#$URL: svn://www.crystallography.net/cod/cif/1/53/81/1538129.cif $
#------------------------------------------------------------------------------
#
# This file is available in the Crystallography Open Database (COD),
# http://www.crystallography.net/
#
# All data on this site have been placed in the public domain by the
# contributors.
#
data_1538129
loop_
_publ_author_name
'Goebel, J.A.'
'Rosen, S.'
_publ_section_title
;
 Phase equilibria in the nickel-aluminium-scandium system at 1000 degree
;
_journal_name_full               'Journal of the Less-Common Metals'
_journal_page_first              441
_journal_page_last               446
_journal_volume                  16
_journal_year                    1968
_chemical_formula_sum            'Ni5 Sc'
_chemical_name_systematic        'Ni5 Sc'
_space_group_IT_number           191
_symmetry_space_group_name_Hall  '-P 6 2'
_symmetry_space_group_name_H-M   'P 6/m m m'
_cell_angle_alpha                90
_cell_angle_beta                 90
_cell_angle_gamma                120
_cell_formula_units_Z            1
_cell_length_a                   4.74
_cell_length_b                   4.74
_cell_length_c                   3.76
_cell_volume                     73.160
_citation_journal_id_ASTM        JCOMAH
_cod_data_source_file            Goebel_JCOMAH_1968_1022.cif
_cod_data_source_block           Ni5Sc1
_cod_original_cell_volume        73.16024
_cod_original_formula_sum        'Ni5 Sc1'
_cod_database_code               1538129
loop_
_symmetry_equiv_pos_as_xyz
x,y,z
x-y,x,z
-y,x-y,z
-x,-y,z
-x+y,-x,z
y,-x+y,z
-y,-x,-z
x-y,-y,-z
x,x-y,-z
y,x,-z
-x+y,y,-z
-x,-x+y,-z
-x,-y,-z
-x+y,-x,-z
y,-x+y,-z
x,y,-z
x-y,x,-z
-y,x-y,-z
y,x,z
-x+y,y,z
-x,-x+y,z
-y,-x,z
x-y,-y,z
x,x-y,z
loop_
_atom_site_label
_atom_site_type_symbol
_atom_site_fract_x
_atom_site_fract_y
_atom_site_fract_z
_atom_site_occupancy
_atom_site_U_iso_or_equiv
Sc1 Sc 0 0 0 1 0.0
Ni2 Ni 0.5 0 0.5 1 0.0
Ni1 Ni 0.3333 0.6667 0 1 0.0
