#------------------------------------------------------------------------------
#$Date: 2016-02-13 21:28:24 +0200 (Sat, 13 Feb 2016) $
#$Revision: 176429 $
#$URL: svn://www.crystallography.net/cod/cif/1/53/86/1538633.cif $
#------------------------------------------------------------------------------
#
# This file is available in the Crystallography Open Database (COD),
# http://www.crystallography.net/
#
# All data on this site have been placed in the public domain by the
# contributors.
#
data_1538633
loop_
_publ_author_name
'Kanematsu, K.'
_publ_section_title
;
 Stability of the Crystal Structure of (Fe, V)~3~M and (Fe, Ni)~3~M
 (M= Si, Ge, Sn) and its Analysis Based on Rigid Band Model
;
_journal_coden_ASTM              TJIMAA
_journal_issue                   4
_journal_name_full
;
 Transactions of the Japan Institute of Metals
;
_journal_page_first              225
_journal_page_last               232
_journal_paper_doi               10.2320/matertrans1960.27.225
_journal_volume                  27
_journal_year                    1986
_chemical_formula_sum            'Ni3 Si'
_chemical_name_systematic        'Ni3 Si'
_space_group_IT_number           221
_symmetry_space_group_name_Hall  '-P 4 2 3'
_symmetry_space_group_name_H-M   'P m -3 m'
_cell_angle_alpha                90
_cell_angle_beta                 90
_cell_angle_gamma                90
_cell_formula_units_Z            1
_cell_length_a                   3.542
_cell_length_b                   3.542
_cell_length_c                   3.542
_cell_volume                     44.437
_citation_journal_id_ASTM        TJIMAA
_cod_data_source_file            Kanematsu_TJIMAA_1986_1042.cif
_cod_data_source_block           Ni3Si1
_cod_original_cell_volume        44.4371
_cod_original_formula_sum        'Ni3 Si1'
_cod_database_code               1538633
loop_
_symmetry_equiv_pos_as_xyz
x,y,z
-y,x,z
-x,-y,z
y,-x,z
x,-y,-z
y,x,-z
-x,y,-z
-y,-x,-z
z,x,y
-x,z,y
-z,-x,y
x,-z,y
z,-x,-y
x,z,-y
-z,x,-y
-x,-z,-y
y,z,x
y,-z,-x
z,y,-x
-y,z,-x
-z,-y,-x
-y,-z,x
z,-y,x
-z,y,x
-x,-y,-z
y,-x,-z
x,y,-z
-y,x,-z
-x,y,z
-y,-x,z
x,-y,z
y,x,z
-z,-x,-y
x,-z,-y
z,x,-y
-x,z,-y
-z,x,y
-x,-z,y
z,-x,y
x,z,y
-y,-z,-x
-y,z,x
-z,-y,x
y,-z,x
z,y,x
y,z,-x
-z,y,-x
z,-y,-x
loop_
_atom_site_label
_atom_site_type_symbol
_atom_site_fract_x
_atom_site_fract_y
_atom_site_fract_z
_atom_site_occupancy
_atom_site_U_iso_or_equiv
Si1 Si 0 0 0 1 0.0
Ni1 Ni 0 0.5 0.5 1 0.0
