#------------------------------------------------------------------------------
#$Date: 2016-02-13 21:28:24 +0200 (Sat, 13 Feb 2016) $
#$Revision: 176429 $
#$URL: svn://www.crystallography.net/cod/cif/1/52/05/1520546.cif $
#------------------------------------------------------------------------------
#
# This file is available in the Crystallography Open Database (COD),
# http://www.crystallography.net/
#
# All data on this site have been placed in the public domain by the
# contributors.
#
data_1520546
loop_
_publ_author_name
'Lipatov, Alexey'
'Wilson, Peter M.'
'Shekhirev, Mikhail'
'Teeter, Jacob D.'
'Netusil, Ross'
'Sinitskii, Alexander'
_publ_section_title
;
 Few-layered titanium trisulfide (TiS3) field-effect transistors.
;
_journal_issue                   29
_journal_name_full               Nanoscale
_journal_page_first              12291
_journal_page_last               12296
_journal_paper_doi               10.1039/c5nr01895a
_journal_volume                  7
_journal_year                    2015
_chemical_formula_sum            'S3 Ti'
_chemical_formula_weight         144.1
_chemical_name_systematic        ' ?'
_space_group_IT_number           11
_symmetry_cell_setting           monoclinic
_symmetry_Int_Tables_number      11
_symmetry_space_group_name_Hall  '-P 2yb'
_symmetry_space_group_name_H-M   'P 1 21/m 1'
_cell_angle_alpha                90
_cell_angle_beta                 97.617
_cell_angle_gamma                90
_cell_formula_units_Z            2
_cell_length_a                   4.9476
_cell_length_b                   3.3787
_cell_length_c                   8.7479
_cell_measurement_temperature    293
_cell_volume                     144.944
_diffrn_ambient_temperature      293
_diffrn_measured_fraction_theta_full 0.83
_diffrn_measured_fraction_theta_max 0.78
_diffrn_radiation_probe          x-ray
_diffrn_radiation_source         'X-ray tube'
_diffrn_radiation_type           'Mo K\a'
_diffrn_radiation_wavelength     0.71073
_diffrn_reflns_av_unetI/netI     0.1389
_diffrn_reflns_limit_h_max       5
_diffrn_reflns_limit_h_min       -6
_diffrn_reflns_limit_k_max       4
_diffrn_reflns_limit_k_min       -4
_diffrn_reflns_limit_l_max       11
_diffrn_reflns_limit_l_min       -11
_diffrn_reflns_number            702
_diffrn_reflns_theta_full        11.82
_diffrn_reflns_theta_max         27.46
_diffrn_reflns_theta_min         2.35
_exptl_absorpt_coefficient_mu    4.769
_exptl_crystal_density_diffrn    3.3008
_exptl_crystal_F_000             140
_refine_ls_extinction_method     none
_refine_ls_goodness_of_fit_gt    2.56
_refine_ls_goodness_of_fit_ref   2.13
_refine_ls_number_constraints    0
_refine_ls_number_parameters     21
_refine_ls_number_reflns         702
_refine_ls_number_restraints     0
_refine_ls_R_factor_all          0.1771
_refine_ls_R_factor_gt           0.1252
_refine_ls_shift/su_max          0.0148
_refine_ls_shift/su_mean         0.0042
_refine_ls_structure_factor_coef F
_refine_ls_weighting_details     w=1/(\s^2^(F)+0.0001F^2^)
_refine_ls_weighting_scheme      sigma
_refine_ls_wR_factor_gt          0.1463
_refine_ls_wR_factor_ref         0.1545
_reflns_number_gt                435
_reflns_number_total             702
_reflns_threshold_expression     I>3\s(I)
_cod_data_source_file            c5nr01895a2.cif
_cod_data_source_block           I
_cod_depositor_comments
;
The following automatic conversions were performed:

'_diffrn_radiation_probe' value 'X-ray' changed to 'x-ray' according
to
/usr/data/users/saulius/crontab/automatic-downloads/rss-feeds/RSC/lib/dictionaries/cif_core.dic
dictionary named 'cif_core.dic' version 2.4.2 from 2011-04-26.

Automatic conversion script
Id: cif_fix_values 3271 2015-04-21 07:52:19Z andrius 

 Adding full bibliography for 1520546.cif.
;
_cod_original_cell_volume        144.9436
_cod_original_formula_sum        'S3 Ti1'
_cod_database_code               1520546
loop_
_space_group_symop_id
_space_group_symop_operation_xyz
1 x,y,z
2 -x,y+1/2,-z
3 -x,-y,-z
4 x,-y+1/2,z
loop_
_atom_site_label
_atom_site_type_symbol
_atom_site_fract_x
_atom_site_fract_y
_atom_site_fract_z
_atom_site_adp_type
_atom_site_U_iso_or_equiv
_atom_site_site_symmetry_multiplicity
_atom_site_occupancy
_atom_site_calc_flag
Ti1 Ti 0.2872(9) 0.25 0.1510(4) Uani 0.0125(12) 2 1 d
S1 S 0.4614(12) 0.25 0.6764(5) Uani 0.0126(16) 2 1 d
S2 S 0.7601(11) 0.25 0.0514(6) Uani 0.0099(15) 2 1 d
S3 S 0.8883(11) 0.25 0.6730(5) Uani 0.0063(14) 2 1 d
loop_
_atom_site_aniso_label
_atom_site_aniso_type_symbol
_atom_site_aniso_U_11
_atom_site_aniso_U_22
_atom_site_aniso_U_33
_atom_site_aniso_U_12
_atom_site_aniso_U_13
_atom_site_aniso_U_23
Ti1 Ti 0.0088(19) 0.005(2) 0.023(2) 0 0 0
S1 S 0.025(3) 0.010(3) 0.002(2) 0 0 0
S2 S 0.007(3) 0.005(3) 0.018(2) 0 0 0
S3 S 0.011(2) 0.006(3) 0.0010(19) 0 0 0
loop_
_atom_type_symbol
_atom_type_scat_dispersion_real
_atom_type_scat_dispersion_imag
_atom_type_scat_source
S 0.1246 0.1234 'International Tables Vol C tables 4.2.6.8 and 6.1.1.1'
Ti 0.2776 0.4457 'International Tables Vol C tables 4.2.6.8 and 6.1.1.1'
loop_
_refln_index_h
_refln_index_k
_refln_index_l
_refln_F_squared_calc
_refln_F_squared_meas
_refln_F_squared_sigma
_refln_observed_status
0 2 0 6237.71 7930.28 393.98 o
0 -4 0 2154.60 2357.74 194.06 o
-1 0 0 162.40 83.99 13.30 o
-1 1 0 0.32 -5.50 8.51 <
-1 1 0 0.32 2.04 9.76 <
1 1 0 0.32 7.89 7.01 <
-1 2 0 59.50 57.30 24.21 <
1 2 0 59.50 16.76 15.61 <
-1 2 0 59.50 51.53 18.80 <
1 3 0 2.14 33.26 25.63 <
-2 0 0 786.50 1413.95 101.20 o
-2 1 0 1811.61 2163.15 168.70 o
-2 -1 0 1811.61 2544.80 169.94 o
2 -1 0 1811.61 2105.50 155.39 o
-2 2 0 421.00 633.45 86.83 o
2 2 0 421.00 592.21 51.89 o
-2 -2 0 421.00 573.05 105.10 o
-2 3 0 739.30 886.58 123.02 o
2 -3 0 739.30 1004.28 117.34 o
2 -4 0 175.82 375.97 65.37 o
-3 0 0 48.31 127.90 31.75 o
3 -1 0 34.78 77.87 16.76 o
-3 -1 0 34.78 67.32 16.59 o
-3 1 0 34.78 60.93 23.24 <
-3 1 0 34.78 98.10 22.53 o
3 -2 0 39.01 62.88 30.51 <
-3 2 0 39.01 62.71 28.56 <
3 -3 0 10.88 20.13 47.01 <
-3 -3 0 10.88 38.49 64.13 <
-3 3 0 10.88 43.99 43.73 <
-4 0 0 367.85 571.10 112.46 o
-4 0 0 367.85 605.87 69.89 o
-4 1 0 26.92 107.32 36.10 <
-4 -1 0 26.92 152.11 29.80 o
-4 1 0 26.92 86.65 36.90 <
4 -2 0 259.00 434.42 46.65 o
-4 2 0 259.00 439.03 69.09 o
4 -3 0 15.58 64.21 43.19 <
-4 3 0 15.58 65.10 51.26 <
-5 0 0 568.89 993.10 137.74 o
-5 0 0 568.89 746.98 88.96 o
-5 1 0 35.75 105.10 41.07 <
-5 -1 0 35.75 62.17 80.45 <
-5 -1 0 35.75 114.68 30.42 o
-5 -2 0 429.19 664.76 85.50 o
-5 2 0 429.19 655.00 84.08 o
-5 -2 0 429.19 609.68 125.59 o
-6 0 0 236.84 72.11 37.52 <
-6 0 0 236.84 151.67 98.89 <
-6 1 0 192.25 223.07 54.72 o
-6 -1 0 192.25 195.04 102.89 <
-6 -1 0 192.25 261.65 51.62 o
0 0 -1 654.27 924.28 43.11 o
0 0 -1 654.27 818.82 51.80 o
0 0 1 654.27 844.81 64.21 o
0 1 -1 58.21 87.10 23.42 o
0 -1 1 58.21 106.17 21.02 o
0 1 -1 58.21 82.04 20.75 o
0 -1 -1 58.21 76.19 34.50 <
0 -2 1 254.25 315.04 49.67 o
0 2 -1 254.25 329.59 54.28 o
0 -2 -1 254.25 356.28 102.09 o
0 3 -1 16.45 15.88 27.67 <
0 -3 -1 16.45 17.38 37.69 <
0 4 -1 91.85 127.36 44.35 <
0 -4 -1 91.85 130.11 56.50 <
-1 0 1 892.27 671.94 70.33 o
-1 0 1 892.27 641.61 42.75 o
-1 0 -1 1023.01 629.10 52.15 o
-1 1 -1 0.07 -0.89 9.85 <
1 -1 -1 9.60 -6.21 11.00 <
-1 1 -1 0.07 3.28 10.11 <
-1 -1 -1 0.07 -5.85 8.69 <
-1 1 1 9.60 4.88 7.10 <
1 1 -1 9.60 -2.13 7.98 <
-1 1 1 9.60 7.36 11.80 <
-1 2 -1 461.82 352.47 55.88 o
-1 2 -1 461.82 291.36 54.28 o
1 2 -1 368.21 267.94 44.70 o
-1 -2 -1 461.82 195.21 57.74 o
-1 2 1 368.21 274.95 49.31 o
1 -3 -1 2.09 15.26 37.61 <
-1 3 -1 1.44 11.62 27.50 <
-1 3 -1 1.44 -4.17 29.36 <
1 3 -1 2.09 -32.55 26.25 <
-1 -3 -1 1.44 28.65 36.81 <
1 -4 -1 117.83 160.98 58.27 <
1 4 -1 117.83 92.68 45.32 <
-1 -4 -1 157.40 123.82 56.14 <
-2 0 1 988.95 908.22 116.28 o
-2 0 1 988.95 1061.40 75.03 o
-2 1 -1 1603.43 1825.67 149.80 o
2 -1 -1 2164.47 2142.75 137.65 o
-2 -1 1 2164.47 1912.15 123.55 o
-2 1 -1 1603.43 1965.01 130.73 o
-2 -1 -1 1603.43 1973.79 171.89 o
-2 1 1 2164.47 1992.59 156.37 o
-2 1 1 2164.47 2102.22 147.59 o
2 1 -1 2164.47 2009.80 109.27 o
-2 2 -1 1899.79 2377.88 190.60 o
-2 2 -1 1899.79 1855.56 173.57 o
-2 -2 -1 1899.79 2047.05 136.32 o
-2 -2 -1 1899.79 2628.79 264.22 o
-2 -3 1 873.37 836.65 104.48 o
-2 3 -1 631.13 834.34 117.16 o
2 -3 -1 873.37 807.82 100.05 o
-2 3 -1 631.13 716.38 107.85 o
2 3 -1 873.37 902.72 85.41 o
-2 -3 -1 631.13 794.87 79.20 o
-2 3 1 873.37 837.36 120.54 o
2 -4 -1 200.84 374.38 60.93 o
2 -4 1 779.16 1185.39 102.26 o
-3 -1 1 428.99 347.59 36.72 o
3 -1 -1 428.99 339.17 35.83 o
-3 -1 1 428.99 439.21 97.56 o
-3 1 1 428.99 481.52 65.37 o
-3 1 1 428.99 436.46 56.85 o
-3 -2 1 58.48 75.83 34.06 <
3 -2 -1 58.48 78.85 26.34 <
-3 -2 -1 250.82 385.55 88.69 o
-3 -3 1 169.56 263.77 70.60 o
-3 -3 -1 614.51 769.51 111.22 o
3 -3 1 614.51 648.62 70.25 o
-4 0 1 2456.10 2132.73 162.93 o
-4 0 1 2456.10 1719.86 228.12 o
-4 -2 1 1755.44 1371.03 221.91 o
-4 -2 1 1755.44 1814.14 135.88 o
4 -2 -1 1755.44 1445.62 113.00 o
4 -3 1 740.83 649.06 74.86 o
-4 -3 -1 740.83 546.71 92.51 o
-5 0 -1 118.31 223.24 76.37 <
-5 0 1 61.95 76.01 26.79 <
-5 0 -1 118.31 139.60 36.19 o
-5 0 1 61.95 -12.33 64.57 <
-5 -1 1 199.89 276.28 44.70 o
-5 -1 1 199.89 243.46 80.27 o
-5 1 1 199.89 299.08 59.87 o
-5 2 -1 88.73 117.16 45.50 <
-5 -2 1 45.63 27.23 92.86 <
-5 -2 -1 88.73 204.79 48.16 o
-6 -1 1 102.59 -3.99 96.68 <
-6 -1 -1 167.25 292.78 108.56 <
-6 -1 -1 167.25 341.12 61.64 o
0 0 2 509.89 604.36 63.59 o
0 0 -2 509.89 583.52 44.79 o
0 0 -2 509.89 636.29 51.53 o
0 1 -2 6583.78 8379.78 371.36 o
0 1 -2 6583.78 8869.37 362.93 o
0 -1 2 6583.78 8733.22 426.70 o
0 -1 -2 6583.78 8119.64 372.78 o
0 2 -2 197.39 278.05 68.65 o
0 -2 -2 197.39 251.45 63.68 o
0 2 -2 197.39 273.71 64.21 o
0 3 -2 2182.63 2430.65 212.24 o
0 -3 -2 2182.63 2434.02 213.31 o
0 4 -2 59.01 -12.42 45.23 <
0 -4 -2 59.01 -22.00 52.42 <
-1 0 2 258.09 134.19 16.32 o
-1 0 2 258.09 97.74 22.44 o
1 1 -2 171.45 66.52 17.92 o
-1 1 2 171.45 133.22 25.99 o
-1 1 2 171.45 85.94 24.57 o
-1 2 -2 2.10 21.46 18.80 <
-1 -2 2 123.12 89.14 31.49 <
1 -2 -2 123.12 48.07 21.73 <
1 2 -2 123.12 60.93 23.86 <
-1 -3 2 71.95 19.16 39.11 <
1 -3 -2 71.95 66.34 34.77 <
-1 -3 -2 314.39 192.29 34.24 o
1 -4 -2 26.35 -33.61 54.28 <
-1 4 -2 0.17 -40.71 46.48 <
-1 -4 -2 0.17 -25.90 52.24 <
1 4 -2 26.35 25.01 46.83 <
-2 0 2 3422.90 3194.12 262.62 o
2 0 -2 3422.90 3815.16 172.77 o
-2 0 2 3422.90 4092.50 201.78 o
-2 -1 2 1323.14 1611.03 193.53 o
-2 -1 2 1323.14 1754.09 95.17 o
-2 1 2 1323.13 1566.15 139.43 o
-2 1 2 1323.13 1624.07 139.69 o
2 1 -2 1323.14 1638.62 101.82 o
2 -2 -2 1857.09 1764.91 154.50 o
-2 -2 2 1857.09 1625.05 204.53 o
-3 0 2 54.93 111.93 23.42 o
-3 -1 2 526.25 474.51 108.38 o
3 -1 -2 526.25 772.70 66.17 o
-3 -1 2 526.25 604.71 51.35 o
-3 1 2 526.25 501.92 58.27 o
-3 1 2 526.25 533.94 74.77 o
-3 -2 -2 131.37 252.16 67.58 o
-3 -3 2 299.74 446.84 98.80 o
-3 -3 -2 134.69 158.58 61.46 <
-4 0 2 267.05 224.75 62.44 o
-4 -1 2 48.45 60.76 54.72 <
-4 -1 2 48.45 98.45 23.24 o
-4 1 2 48.45 153.09 47.54 o
-4 1 2 48.45 168.25 35.21 o
-4 -2 2 196.21 249.41 80.62 o
4 -2 -2 196.21 303.15 49.31 o
-4 -2 -2 26.72 -42.48 49.76 <
-4 -3 2 25.51 72.02 92.24 <
4 -3 -2 25.51 -46.03 48.34 <
-4 -3 -2 183.79 173.66 60.93 <
-5 0 2 555.99 873.54 99.07 o
-5 0 2 555.99 863.79 110.51 o
-6 0 2 284.36 328.79 83.55 o
-6 -1 2 106.98 131.98 87.54 <
-6 1 2 106.98 49.05 50.91 <
0 0 -3 851.80 985.30 68.47 o
0 0 3 851.80 1186.72 110.25 o
0 0 -3 851.80 1030.80 79.20 o
0 -1 3 972.78 1327.03 111.67 o
0 -1 -3 972.78 1191.33 94.99 o
0 1 -3 972.78 1244.11 95.43 o
0 1 -3 972.78 1307.61 85.06 o
0 2 -3 372.71 346.08 56.94 o
0 -2 3 372.71 311.40 46.65 o
0 2 -3 372.71 364.53 50.02 o
0 -2 -3 372.71 320.27 55.88 o
0 -3 -3 381.97 514.60 75.12 o
0 3 -3 381.97 551.67 83.64 o
0 -4 -3 165.12 97.83 56.14 <
0 4 -3 165.12 73.62 46.74 <
-1 0 -3 164.43 84.79 17.65 o
1 0 -3 41.61 46.92 14.63 o
-1 0 3 41.61 31.04 18.71 <
1 -1 -3 1843.43 1512.49 121.16 o
-1 1 -3 2143.15 1471.43 111.04 o
-1 -1 3 1843.43 1563.40 152.64 o
-1 1 -3 2143.15 1605.09 112.02 o
1 1 -3 1843.43 1385.84 102.26 o
-1 -1 -3 2143.15 1467.26 85.15 o
-1 -2 3 18.51 31.31 23.33 <
-1 2 -3 97.26 36.63 19.34 <
1 -2 -3 18.51 25.72 22.08 <
-1 2 -3 97.26 62.35 20.13 o
-1 -2 -3 97.26 68.38 18.18 o
1 2 -3 18.51 35.21 17.56 <
-1 3 -3 868.46 616.07 83.82 o
-1 3 -3 868.46 679.30 97.56 o
1 -3 -3 726.77 661.57 84.17 o
1 3 -3 726.77 481.78 81.42 o
-1 -3 -3 868.46 650.92 77.78 o
1 -4 -3 8.55 30.07 58.45 <
-1 4 -3 53.52 23.50 48.07 <
-1 -4 -3 53.52 -33.26 57.21 <
-2 0 3 511.24 449.59 69.09 o
-2 0 3 511.24 400.98 39.47 o
2 0 -3 511.24 434.15 45.32 o
-2 2 -3 873.66 1144.15 127.19 o
-2 2 -3 873.66 957.62 110.33 o
-2 3 -3 523.42 422.54 74.86 o
-2 3 -3 523.42 412.34 78.58 o
-2 -3 -3 523.42 498.46 109.18 o
2 -4 -3 94.31 131.00 64.04 <
2 4 -3 94.31 24.83 52.42 <
-3 0 3 691.12 514.42 54.01 o
3 0 -3 691.12 535.35 48.69 o
-3 0 3 691.12 524.45 88.78 o
3 -1 -3 436.83 283.55 36.72 o
-3 -1 3 436.83 324.53 77.43 o
-3 1 -3 297.85 199.83 40.80 o
3 1 -3 436.83 362.40 43.90 o
-3 1 3 436.83 396.37 57.30 o
-3 1 3 436.83 392.29 57.47 o
-3 -1 -3 297.85 311.49 58.63 o
3 -2 -3 428.78 385.11 55.97 o
-3 -2 3 428.78 441.69 95.17 o
3 2 -3 428.78 404.27 47.10 o
-3 2 3 428.78 399.21 83.64 o
-3 2 3 428.78 389.72 52.95 o
3 -3 -3 213.71 205.77 48.78 o
-3 3 -3 146.73 160.18 45.50 o
-3 3 -3 146.73 174.37 46.83 o
-3 -3 3 213.71 202.66 69.36 <
-3 -3 -3 146.73 160.18 64.92 <
-3 3 3 213.71 243.29 67.94 o
3 3 -3 213.71 233.26 37.07 o
-4 0 3 18.69 33.88 36.72 <
-4 0 3 18.69 33.08 24.21 <
-4 -1 3 1389.31 1389.56 192.02 o
4 -1 -3 1389.31 1055.01 80.71 o
-4 1 3 1389.31 970.22 114.42 o
-4 1 3 1389.31 899.89 97.03 o
-4 -2 3 12.46 -10.11 61.38 <
-4 2 -3 126.11 92.24 42.04 <
4 -2 -3 12.46 12.42 34.68 <
-4 -2 -3 126.11 140.76 51.18 <
-4 -3 3 776.91 467.24 113.00 o
-5 0 -3 48.15 26.87 25.54 <
-5 0 3 15.51 18.98 54.90 <
-5 0 3 15.51 32.64 35.83 <
-5 -1 3 5.27 28.65 65.54 <
-5 1 -3 6.63 10.29 33.79 <
-5 1 3 5.27 57.21 50.11 <
-5 -1 -3 6.63 -3.19 39.47 <
-5 1 3 5.27 15.79 37.87 <
-5 2 -3 40.82 -39.73 53.39 <
-5 -2 3 12.24 -30.42 82.57 <
-5 2 3 12.24 27.58 48.78 <
-5 -2 -3 40.82 14.28 62.44 <
-6 0 3 181.85 -18.36 71.66 <
-6 -1 3 370.98 245.06 94.19 <
-6 1 3 370.98 287.01 55.52 o
0 0 -4 899.32 1114.88 76.28 o
0 0 4 899.32 1104.50 122.93 o
0 0 -4 899.32 998.16 82.84 o
0 -1 4 1167.73 1367.57 129.76 o
0 1 -4 1167.73 1350.80 107.41 o
0 1 -4 1167.73 1448.19 91.09 o
0 -1 -4 1167.73 1449.96 106.61 o
0 -2 4 480.84 648.71 74.86 o
0 -2 -4 480.84 579.35 84.61 o
0 2 -4 480.84 558.15 66.43 o
0 2 -4 480.84 590.17 83.99 o
0 -3 -4 464.20 600.54 94.28 o
0 3 -4 464.20 549.10 96.06 o
0 4 -4 181.06 255.88 47.63 o
0 -4 -4 181.06 243.11 62.62 o
-1 0 4 467.18 472.03 78.76 o
1 0 -4 467.18 472.20 50.82 o
-1 0 -4 923.79 573.40 54.90 o
-1 0 -4 923.79 549.37 42.93 o
1 -2 -4 265.95 169.58 46.30 o
-1 2 -4 533.39 307.23 58.27 o
-1 -2 4 265.95 187.14 42.75 o
1 2 -4 265.95 205.41 38.85 o
1 -4 -4 114.20 95.43 63.68 <
-1 4 -4 219.37 76.45 48.96 <
-1 -4 -4 219.37 109.18 60.93 <
1 4 -4 114.20 62.53 48.96 <
2 0 -4 1311.74 1834.45 117.43 o
-2 0 4 1311.74 1445.62 166.30 o
2 1 -4 1186.72 1181.04 99.51 o
-2 1 4 1186.72 1263.26 144.48 o
-2 1 4 1186.72 1203.66 120.80 o
2 -2 -4 780.84 946.18 112.55 o
-2 -2 4 780.84 878.69 130.73 o
-2 -2 -4 291.25 591.67 156.72 o
2 2 -4 780.84 976.87 94.72 o
3 0 -4 463.26 394.69 42.31 o
-3 0 4 463.26 408.70 77.52 o
-3 0 4 463.26 444.27 42.75 o
3 -1 -4 129.32 179.25 32.82 o
3 -2 -4 339.98 344.22 57.21 o
-3 2 -4 660.01 411.10 64.04 o
-3 -2 4 339.98 318.05 73.08 o
-3 2 4 339.98 251.54 51.35 o
-3 2 4 339.98 355.31 70.42 o
3 2 -4 339.98 383.51 46.30 o
3 -3 -4 66.00 51.89 49.14 <
-3 3 -4 282.06 307.32 66.34 o
-3 3 -4 282.06 260.76 48.87 o
-3 -3 -4 282.06 243.38 72.73 o
4 0 -4 34.11 119.29 21.29 o
-4 0 -4 75.81 74.24 27.05 <
-4 0 4 34.11 11.26 36.54 <
-4 -1 4 283.61 137.92 45.50 o
4 1 -4 283.61 189.36 32.64 o
-4 1 4 283.61 189.72 36.45 o
-4 2 -4 55.01 135.17 47.72 <
-4 -2 4 29.20 -32.73 57.47 <
-4 -2 -4 55.01 -12.51 58.18 <
-4 2 4 29.20 6.03 43.81 <
-4 -3 4 175.41 141.82 77.87 <
4 -3 -4 175.41 240.45 48.96 o
-4 3 4 175.41 131.27 56.14 <
-5 1 4 1077.48 953.81 101.47 o
-5 1 4 1077.48 1334.75 139.51 o
-5 -2 4 62.60 107.94 80.45 <
-5 2 4 62.60 92.60 55.97 <
-6 0 4 4.53 48.96 68.03 <
-6 -1 4 106.96 140.23 90.20 <
0 0 5 665.19 672.30 102.62 o
0 0 -5 665.19 723.39 62.00 o
0 0 -5 665.19 727.47 68.03 o
0 1 -5 332.29 238.76 25.72 o
0 -1 5 332.29 244.62 50.73 o
0 1 -5 332.29 256.77 42.84 o
0 2 -5 421.79 374.82 63.95 o
0 2 -5 421.79 342.71 50.82 o
0 -2 5 421.79 366.84 61.20 o
0 -3 -5 204.48 237.52 48.07 o
0 3 -5 204.48 132.60 36.54 o
-1 0 5 1732.90 1541.14 166.65 o
1 0 -5 1732.90 1431.60 107.41 o
-1 0 -5 2141.51 1464.95 94.81 o
-1 0 -5 2141.51 1606.15 115.21 o
1 -1 -5 0.70 6.65 18.09 <
-1 1 -5 102.36 47.36 11.88 o
-1 1 -5 102.36 83.28 19.42 o
-1 -1 -5 102.36 184.84 49.49 o
-1 -1 -5 102.36 128.16 22.26 o
-1 2 -5 1376.81 991.59 86.83 o
1 -2 -5 1090.42 974.30 110.16 o
-1 2 -5 1376.81 962.59 114.06 o
-1 -2 5 1090.42 814.21 100.58 o
1 2 -5 1090.42 836.83 96.32 o
-1 -2 -5 1376.81 857.67 80.00 o
-1 3 -5 56.81 107.94 35.03 o
1 -3 -5 0.38 -3.28 39.47 <
1 3 -5 0.38 7.98 33.53 <
-1 -3 -5 56.81 41.33 31.57 <
-2 -2 5 337.71 241.78 58.01 o
-2 -2 -5 1.48 15.79 71.22 <
-2 3 -5 378.60 289.94 62.97 o
-3 0 5 1328.72 1089.25 82.22 o
-3 0 5 1328.72 833.72 117.87 o
-3 -1 5 685.79 494.20 97.83 o
-3 1 -5 516.35 481.07 55.43 o
-3 1 -5 516.35 486.84 63.68 o
-3 1 5 685.79 501.39 90.29 o
-3 -1 -5 516.35 549.19 83.99 o
3 1 -5 685.79 618.90 61.91 o
-3 1 5 685.79 578.46 70.07 o
3 -2 -5 930.68 537.13 85.32 o
3 2 -5 930.68 839.66 86.57 o
-3 2 5 930.68 842.32 98.45 o
-3 3 -5 287.75 219.07 53.48 o
-3 3 -5 287.75 362.31 56.05 o
3 -3 -5 378.46 346.44 65.10 o
3 3 -5 378.46 319.74 48.60 o
-3 -3 -5 287.75 273.98 76.99 o
4 0 -5 218.11 338.81 25.99 o
-4 0 -5 390.94 343.07 47.27 o
-4 -1 5 125.47 26.52 44.08 <
-4 1 -5 42.60 57.83 31.04 <
4 -1 -5 125.47 50.29 20.58 <
-4 -1 -5 42.60 31.13 43.28 <
-4 1 5 125.47 78.32 36.90 <
4 1 -5 125.47 134.99 23.06 o
-4 1 5 125.47 117.08 48.60 <
-4 -2 5 154.67 139.78 59.51 <
-4 2 -5 298.96 77.52 54.01 <
4 -2 -5 154.67 25.81 30.51 <
-4 -2 -5 298.96 370.12 76.10 o
4 -3 -5 69.92 -52.86 47.01 <
-4 -3 5 69.92 -31.57 75.48 <
-5 -1 5 156.43 193.80 67.67 <
-5 -1 -5 2.61 -13.75 53.48 <
-5 1 5 156.43 154.33 62.00 <
-5 -2 5 0.45 20.40 77.16 <
-5 2 5 0.45 23.42 59.34 <
-6 0 5 133.17 17.65 68.29 <
0 0 -6 1882.93 2284.48 150.25 o
0 0 -6 1882.93 2293.97 139.34 o
0 -1 -6 144.83 268.92 84.17 o
0 1 -6 144.83 134.73 20.67 o
0 -1 6 144.83 169.76 39.38 o
0 -1 -6 144.83 218.81 51.80 o
0 1 -6 144.83 129.85 32.02 o
0 2 -6 1246.26 1385.66 139.25 o
0 -2 -6 1246.26 1475.86 130.82 o
0 -2 6 1246.26 1321.18 130.47 o
0 3 -6 89.12 134.81 36.45 o
0 -3 -6 89.12 115.92 32.82 o
-1 0 6 1000.36 755.85 115.30 o
1 0 -6 1000.36 733.94 62.44 o
1 0 -6 1000.36 785.47 75.48 o
-1 1 -6 174.63 142.09 26.08 o
-1 1 -6 174.63 167.72 31.40 o
-1 -1 6 158.42 205.24 64.04 o
-1 -1 -6 174.63 180.93 67.32 <
-1 -1 -6 174.63 201.25 22.97 o
1 1 -6 158.42 186.43 29.27 o
-1 -2 6 663.73 599.75 87.98 o
1 -2 -6 663.73 545.38 82.84 o
1 2 -6 663.73 496.15 70.69 o
-1 -2 -6 234.95 507.59 111.04 o
1 -3 -6 72.87 48.34 37.69 <
-1 3 -6 89.14 63.77 37.34 <
-2 0 -6 86.01 30.78 18.89 <
-2 0 6 8.52 28.47 32.37 <
2 0 -6 8.52 3.46 14.28 <
-2 0 -6 86.01 -24.21 17.83 <
-2 1 -6 560.24 702.28 75.12 o
-2 -1 6 768.07 817.67 125.94 o
-2 1 -6 560.24 737.04 71.84 o
-2 -1 -6 560.24 892.97 110.33 o
-2 -1 -6 560.24 723.21 49.93 o
-2 1 6 768.07 792.12 113.97 o
2 1 -6 768.07 793.72 84.88 o
-2 2 -6 69.11 -35.39 31.40 <
-2 2 -6 69.11 34.86 32.91 <
-2 -2 6 7.37 16.05 38.40 <
-2 -2 -6 69.11 -92.42 81.07 <
2 2 -6 7.37 -32.64 27.05 <
-2 3 -6 329.17 389.19 69.71 o
2 -3 -6 389.47 446.04 61.82 o
-2 -3 -6 329.17 512.03 100.67 o
2 3 -6 389.47 418.10 64.39 o
3 0 -6 143.27 180.67 26.96 o
-3 2 -6 401.84 383.51 70.51 o
-3 2 -6 401.84 473.62 68.29 o
-3 -3 6 19.19 56.05 56.59 <
3 3 -6 19.19 72.46 49.05 <
4 0 -6 108.77 133.13 25.01 o
-4 0 -6 14.32 80.18 33.61 <
-4 0 6 108.77 -7.89 45.41 <
-4 1 -6 1.37 13.66 35.30 <
-4 -1 6 67.60 18.36 45.59 <
4 -1 -6 67.60 -23.33 22.97 <
4 1 -6 67.60 31.57 25.28 <
-4 1 6 67.60 10.91 59.07 <
-4 -1 -6 1.37 116.28 50.20 <
4 -2 -6 84.03 6.56 31.49 <
-4 -2 6 84.03 -17.12 55.70 <
-4 2 -6 10.83 23.68 61.55 <
-4 -2 -6 10.83 43.46 71.49 <
-5 0 6 860.15 1044.46 117.61 o
-5 -1 6 130.55 190.87 63.15 o
5 -1 -6 130.55 107.76 22.35 o
-5 1 6 130.55 320.45 75.57 o
5 -2 -6 676.69 312.82 52.95 o
0 0 -7 4.30 40.18 12.15 o
0 0 -7 4.30 34.86 15.61 <
0 -1 -7 206.76 91.98 44.08 <
0 1 -7 206.76 42.66 18.09 <
0 -1 -7 206.76 67.23 23.68 <
0 -1 7 206.76 39.47 24.57 <
0 2 -7 1.46 1.24 24.30 <
0 -2 -7 1.46 -8.34 21.64 <
0 3 -7 107.83 -24.48 38.94 <
1 0 -7 12.59 13.66 12.77 <
1 0 -7 12.59 14.01 21.55 <
-1 0 7 12.59 -37.34 27.67 <
-1 0 -7 51.62 23.33 14.28 <
-1 0 -7 51.62 39.38 17.30 <
-1 1 -7 633.06 324.62 34.68 o
-1 -1 7 464.07 423.25 76.99 o
-1 1 -7 633.06 427.42 58.98 o
1 -1 -7 464.07 530.12 77.43 o
-1 -1 -7 633.06 630.26 95.26 o
1 1 -7 464.07 401.43 52.06 o
-1 -1 -7 633.06 488.88 45.94 o
-1 2 -7 35.61 19.87 26.61 <
1 -2 -7 10.07 10.38 24.39 <
-1 -2 7 10.07 -4.17 48.96 <
-1 -2 -7 35.61 137.03 81.15 <
-1 -2 -7 35.61 60.58 19.96 o
1 -3 -7 271.96 105.90 36.99 <
1 3 -7 271.96 176.23 44.17 o
-1 -3 -7 349.18 239.03 33.44 o
-2 1 -7 729.18 961.53 83.28 o
-2 1 -7 729.18 952.22 92.24 o
2 -1 -7 687.93 848.71 99.07 o
-2 -1 7 687.93 825.47 139.96 o
-2 1 7 687.93 726.58 111.40 o
2 1 -7 687.93 688.79 78.14 o
-2 2 -7 365.37 180.85 40.44 o
2 -2 -7 80.85 75.12 30.24 <
-2 -2 7 80.85 -11.88 47.54 <
2 -3 -7 389.21 276.37 44.79 o
2 3 -7 389.21 369.50 67.50 o
3 0 -7 407.42 407.90 43.28 o
-3 0 7 407.42 419.43 95.26 o
3 -1 -7 921.52 859.17 92.51 o
-3 -1 7 921.52 790.53 120.98 o
3 1 -7 921.52 857.31 80.71 o
-3 1 7 921.52 1040.47 143.60 o
3 -2 -7 314.41 172.42 35.21 o
-3 2 -7 8.60 -30.78 57.03 <
-3 -2 7 314.41 208.43 61.38 o
-3 2 -7 8.60 7.18 52.60 <
-3 -2 -7 8.60 49.93 85.94 <
3 2 -7 314.41 268.12 51.53 o
-3 -3 7 535.34 455.80 94.64 o
3 -3 -7 535.34 411.54 65.63 o
3 3 -7 535.34 492.34 76.01 o
4 0 -7 382.04 334.91 37.61 o
-4 -2 7 288.48 194.77 60.67 o
4 -2 -7 288.48 170.56 38.67 o
-4 2 7 288.48 203.73 68.83 <
4 2 -7 288.48 243.82 42.84 o
-5 0 7 545.66 720.19 107.41 o
5 -1 -7 7.11 86.30 24.12 o
-5 -1 7 7.11 -19.42 68.83 <
-5 1 7 7.11 35.83 76.37 <
0 0 -8 838.16 838.33 82.57 o
0 0 -8 838.16 810.66 73.53 o
0 -1 -8 1221.18 1557.55 123.37 o
0 1 -8 1221.18 1789.57 150.96 o
0 -1 -8 1221.18 1568.72 166.83 o
0 -1 8 1221.18 1618.22 181.82 o
0 -2 -8 629.71 856.78 145.28 o
0 -2 -8 629.71 525.51 55.34 o
0 2 -8 629.71 535.80 75.21 o
0 -3 -8 708.35 647.91 67.32 o
0 3 -8 708.35 745.47 97.39 o
-1 0 -8 0.22 -14.01 22.35 <
1 0 -8 18.92 22.35 15.70 <
-1 0 -8 0.22 -14.37 18.27 <
-1 0 8 18.92 17.47 34.59 <
-1 -1 8 346.09 232.91 58.01 o
1 -1 -8 346.09 220.94 39.91 o
-1 -1 -8 183.95 119.12 38.05 o
-1 -1 -8 183.95 173.66 25.54 o
1 -2 -8 10.51 31.22 27.67 <
-1 2 -8 0.19 -45.23 31.75 <
-1 -2 8 10.51 36.72 51.97 <
1 2 -8 10.51 51.44 30.69 <
-1 -2 -8 0.19 -111.22 86.57 <
-1 -2 -8 0.19 7.63 21.64 <
1 -3 -8 202.72 84.88 39.29 <
1 3 -8 202.72 242.84 50.02 o
-2 0 -8 153.82 376.33 45.68 o
-2 0 -8 153.82 313.44 49.22 o
2 0 -8 579.61 358.94 53.30 o
2 1 -8 534.93 1035.14 107.14 o
-2 1 8 534.93 988.40 143.24 o
-2 2 -8 122.42 167.99 45.23 o
2 2 -8 422.38 423.87 57.47 o
-2 -2 -8 122.42 405.95 87.19 o
-3 0 8 74.70 140.05 56.41 <
-3 -1 8 36.92 -24.57 56.14 <
-3 1 -8 101.01 96.32 36.72 <
3 -1 -8 36.92 96.59 25.90 o
-3 -1 -8 101.01 46.39 48.52 <
-3 1 8 36.92 57.30 54.90 <
3 1 -8 36.92 90.56 30.07 o
3 -2 -8 54.97 15.70 38.14 <
-3 -2 8 54.97 -47.01 60.58 <
3 2 -8 54.97 101.55 40.09 <
-4 0 8 0.40 -18.98 67.50 <
4 0 -8 0.40 3.81 20.84 <
4 -1 -8 8.71 86.03 25.10 o
-4 -1 8 8.71 -39.11 61.64 <
-4 1 8 8.71 46.48 67.41 <
4 1 -8 8.71 47.81 32.20 <
4 -2 -8 0.63 13.84 42.31 <
-4 -2 8 0.63 -14.55 68.83 <
4 2 -8 0.63 -9.49 44.26 <
-4 2 8 0.63 -6.12 81.24 <
-5 0 8 92.04 146.61 81.78 <
0 0 -9 59.76 -7.81 18.80 <
0 -1 -9 478.78 592.21 92.68 o
0 -1 -9 478.78 700.68 61.55 o
0 1 -9 478.78 626.27 75.83 o
0 -2 -9 41.73 7.36 25.63 <
0 2 -9 41.73 39.29 35.30 <
0 -2 -9 41.73 5.14 92.60 <
1 0 -9 22.24 3.73 19.16 <
-1 0 9 22.24 -35.21 44.61 <
-1 0 -9 21.63 47.98 23.86 <
-1 -1 9 2.84 -37.69 43.90 <
1 -1 -9 2.84 47.45 22.97 <
-1 1 -9 55.87 41.33 29.36 <
-1 -1 -9 55.87 70.33 40.89 <
-1 -2 9 18.18 48.43 62.88 <
-1 2 -9 15.03 1.69 38.14 <
1 -2 -9 18.18 6.65 31.57 <
-1 -2 -9 15.03 33.97 25.54 <
-1 -2 -9 15.03 -52.60 91.27 <
1 2 -9 18.18 43.28 35.03 <
-2 -1 9 82.18 5.59 57.38 <
-2 1 -9 209.09 104.93 40.53 <
2 -1 -9 82.18 -2.31 25.99 <
-2 -2 9 165.93 379.96 78.14 o
2 -2 -9 165.93 401.96 52.60 o
2 2 -9 165.93 302.36 46.74 o
-3 0 9 346.50 255.53 69.00 o
3 0 -9 346.50 313.80 39.11 o
-3 -1 9 28.99 -3.90 72.82 <
3 -1 -9 28.99 102.53 30.87 o
3 1 -9 28.99 23.24 34.68 <
-3 1 9 28.99 14.90 58.98 <
-3 -2 9 268.08 246.12 80.45 o
3 -2 -9 268.08 224.13 44.97 o
3 2 -9 268.08 193.44 46.92 o
-4 0 9 222.52 173.13 78.41 <
4 0 -9 222.52 103.24 25.01 o
4 1 -9 400.28 458.01 55.08 o
-4 1 9 400.28 341.03 80.00 o
0 0 -10 325.46 784.05 77.70 o
0 1 -10 644.08 547.68 61.73 o
0 -1 -10 644.08 631.85 49.40 o
0 2 -10 258.60 455.89 63.95 o
0 -2 -10 258.60 436.64 46.30 o
-1 0 -10 33.83 24.39 30.95 <
-1 -1 10 2.75 11.80 57.12 <
1 -1 -10 2.75 72.20 26.79 <
-1 1 -10 6.36 61.29 36.10 <
1 1 -10 2.75 44.44 32.73 <
-1 -1 -10 6.36 53.66 23.95 <
-1 -1 -10 6.36 12.15 43.81 <
1 -2 -10 17.66 -13.57 32.55 <
1 2 -10 17.66 -25.46 41.86 <
-2 0 10 1153.67 1591.25 188.47 o
2 0 -10 1153.67 1631.79 127.54 o
2 -1 -10 263.93 345.20 44.88 o
-2 -1 10 263.93 194.59 70.51 <
2 1 -10 263.93 304.40 52.95 o
3 0 -10 1.02 -9.14 32.46 <
-3 0 10 1.02 6.21 73.17 <
-3 -1 10 131.56 27.58 77.96 <
3 1 -10 131.56 128.78 41.95 o
-3 1 10 131.56 107.67 75.74 <
0 0 -11 947.59 1066.36 79.29 o
1 0 -11 13.32 14.28 31.75 <
-1 -1 11 12.51 -61.02 74.24 <
1 1 -11 12.51 18.89 39.56 <
-2 0 11 29.91 159.65 77.25 <
