#------------------------------------------------------------------------------
#$Date: 2016-02-13 21:28:24 +0200 (Sat, 13 Feb 2016) $
#$Revision: 176429 $
#$URL: svn://www.crystallography.net/cod/cif/8/10/44/8104490.cif $
#------------------------------------------------------------------------------
#
# This file is available in the Crystallography Open Database (COD),
# http://www.crystallography.net/
#
# All data on this site have been placed in the public domain by the
# contributors.
#
data_8104490
loop_
_publ_author_name
'Stingl, T.'
'Mueller, B.'
'Lutz, H.D.'
_publ_section_title
;
 Crystal structure refinement of osmium(II) ditelluride
;
_journal_name_full
'Zeitschrift fuer Kristallographie (149,1979-)'
_journal_page_first              163
_journal_page_last               164
_journal_volume                  202
_journal_year                    1992
_chemical_formula_sum            'Os Te2'
_chemical_name_systematic        'Os Te2'
_space_group_IT_number           205
_symmetry_space_group_name_Hall  '-P 2ac 2ab 3'
_symmetry_space_group_name_H-M   'P a -3'
_cell_angle_alpha                90
_cell_angle_beta                 90
_cell_angle_gamma                90
_cell_formula_units_Z            4
_cell_length_a                   6.397
_cell_length_b                   6.397
_cell_length_c                   6.397
_cell_volume                     261.776
_citation_journal_id_ASTM        ZEKRDZ
_cod_data_source_file            Stingl_ZEKRDZ_1992_1503.cif
_cod_data_source_block           Os1Te2
_cod_original_cell_volume        261.7755
_cod_original_formula_sum        'Os1 Te2'
_cod_database_code               8104490
loop_
_symmetry_equiv_pos_as_xyz
x,y,z
-x+1/2,-y,z+1/2
x+1/2,-y+1/2,-z
-x,y+1/2,-z+1/2
z,x,y
-z+1/2,-x,y+1/2
z+1/2,-x+1/2,-y
-z,x+1/2,-y+1/2
y,z,x
y+1/2,-z+1/2,-x
-y,z+1/2,-x+1/2
-y+1/2,-z,x+1/2
-x,-y,-z
x-1/2,y,-z-1/2
-x-1/2,y-1/2,z
x,-y-1/2,z-1/2
-z,-x,-y
z-1/2,x,-y-1/2
-z-1/2,x-1/2,y
z,-x-1/2,y-1/2
-y,-z,-x
-y-1/2,z-1/2,x
y,-z-1/2,x-1/2
y-1/2,z,-x-1/2
loop_
_atom_site_label
_atom_site_type_symbol
_atom_site_fract_x
_atom_site_fract_y
_atom_site_fract_z
_atom_site_occupancy
_atom_site_U_iso_or_equiv
Te1 Te-1 0.3729 0.3729 0.3729 1 0.0
Os1 Os+2 0 0 0 1 0.0
