#------------------------------------------------------------------------------
#$Date: 2016-02-13 21:28:24 +0200 (Sat, 13 Feb 2016) $
#$Revision: 176429 $
#$URL: svn://www.crystallography.net/cod/cif/8/10/40/8104022.cif $
#------------------------------------------------------------------------------
#
# This file is available in the Crystallography Open Database (COD),
# http://www.crystallography.net/
#
# All data on this site have been placed in the public domain by the
# contributors.
#
data_8104022
loop_
_publ_author_name
'Cenzual, K.'
'Gelato, M.N.'
'Penzo, M.'
'Parthe, E.'
_publ_section_title
;
 Overlooked trigonal symmetry in structures reported with monoclinic
 centered Bravais lattices; trigonal description of Li8 Pb3, Pt Te, Pt3
 Te4, Pt2 Te3, Li Fe6 Ge4, Li Fe6 Ge5, Ca Ga6 Te10 and La3.266 Mn1.1 S6
;
_journal_name_full
'Zeitschrift fuer Kristallographie (149,1979-)'
_journal_page_first              217
_journal_page_last               242
_journal_volume                  193
_journal_year                    1990
_chemical_formula_sum            'Pt Te'
_chemical_name_systematic        'Pt Te'
_space_group_IT_number           166
_symmetry_space_group_name_Hall  '-R 3 2"'
_symmetry_space_group_name_H-M   'R -3 m :H'
_cell_angle_alpha                90
_cell_angle_beta                 90
_cell_angle_gamma                120
_cell_formula_units_Z            6
_cell_length_a                   3.963
_cell_length_b                   3.963
_cell_length_c                   19.98
_cell_volume                     271.753
_citation_journal_id_ASTM        ZEKRDZ
_cod_data_source_file            Cenzual_ZEKRDZ_1990_1385.cif
_cod_data_source_block           Pt1Te1
_cod_original_formula_sum        'Pt1 Te1'
_cod_database_code               8104022
loop_
_symmetry_equiv_pos_as_xyz
x,y,z
-y,x-y,z
-x+y,-x,z
y,x,-z
-x,-x+y,-z
x-y,-y,-z
-x,-y,-z
y,-x+y,-z
x-y,x,-z
-y,-x,z
x,x-y,z
-x+y,y,z
x+2/3,y+1/3,z+1/3
-y+2/3,x-y+1/3,z+1/3
-x+y+2/3,-x+1/3,z+1/3
y+2/3,x+1/3,-z+1/3
-x+2/3,-x+y+1/3,-z+1/3
x-y+2/3,-y+1/3,-z+1/3
-x+2/3,-y+1/3,-z+1/3
y+2/3,-x+y+1/3,-z+1/3
x-y+2/3,x+1/3,-z+1/3
-y+2/3,-x+1/3,z+1/3
x+2/3,x-y+1/3,z+1/3
-x+y+2/3,y+1/3,z+1/3
x+1/3,y+2/3,z+2/3
-y+1/3,x-y+2/3,z+2/3
-x+y+1/3,-x+2/3,z+2/3
y+1/3,x+2/3,-z+2/3
-x+1/3,-x+y+2/3,-z+2/3
x-y+1/3,-y+2/3,-z+2/3
-x+1/3,-y+2/3,-z+2/3
y+1/3,-x+y+2/3,-z+2/3
x-y+1/3,x+2/3,-z+2/3
-y+1/3,-x+2/3,z+2/3
x+1/3,x-y+2/3,z+2/3
-x+y+1/3,y+2/3,z+2/3
loop_
_atom_site_label
_atom_site_type_symbol
_atom_site_fract_x
_atom_site_fract_y
_atom_site_fract_z
_atom_site_occupancy
_atom_site_U_iso_or_equiv
Pt1 Pt+2 0 0 0.37 1 0.0
Te1 Te-2 0 0 0.098 1 0.0
