#------------------------------------------------------------------------------
#$Date: 2016-02-13 21:28:24 +0200 (Sat, 13 Feb 2016) $
#$Revision: 176429 $
#$URL: svn://www.crystallography.net/cod/cif/8/10/42/8104282.cif $
#------------------------------------------------------------------------------
#
# This file is available in the Crystallography Open Database (COD),
# http://www.crystallography.net/
#
# All data on this site have been placed in the public domain by the
# contributors.
#
data_8104282
loop_
_publ_author_name
'Wiedemeier, H.'
'von Schnering, H.G.'
_publ_section_title
;
 Refinement of the structures of Ge S, Ge Se, Sn S, and Sn Se
;
_journal_name_full
;
Zeitschrift fuer Kristallographie, Kristallgeometrie, Kristallphysik, 
Kristallchemie (145,1977-148,1979)
;
_journal_page_first              295
_journal_page_last               303
_journal_volume                  148
_journal_year                    1978
_chemical_formula_sum            'Ge S'
_chemical_name_systematic        'Ge S'
_space_group_IT_number           62
_symmetry_space_group_name_Hall  '-P 2ac 2n'
_symmetry_space_group_name_H-M   'P n m a'
_cell_angle_alpha                90
_cell_angle_beta                 90
_cell_angle_gamma                90
_cell_formula_units_Z            4
_cell_length_a                   10.481
_cell_length_b                   3.646
_cell_length_c                   4.299
_cell_volume                     164.281
_citation_journal_id_ASTM        ZKKKAJ
_cod_data_source_file            Wiedemeier_ZKKKAJ_1978_42.cif
_cod_data_source_block           Ge1S1
_cod_original_cell_volume        164.2808
_cod_original_formula_sum        'Ge1 S1'
_cod_database_code               8104282
loop_
_symmetry_equiv_pos_as_xyz
x,y,z
-x+1/2,-y,z+1/2
x+1/2,-y+1/2,-z+1/2
-x,y+1/2,-z
-x,-y,-z
x-1/2,y,-z-1/2
-x-1/2,y-1/2,z-1/2
x,-y-1/2,z
loop_
_atom_site_label
_atom_site_type_symbol
_atom_site_fract_x
_atom_site_fract_y
_atom_site_fract_z
_atom_site_occupancy
_atom_site_U_iso_or_equiv
S1 S 0.8495 0.25 0.5023 1 0.0
Ge1 Ge 0.1221 0.25 0.1277 1 0.0
