#------------------------------------------------------------------------------
#$Date: 2015-09-09 12:25:44 +0300 (Wed, 09 Sep 2015) $
#$Revision: 155635 $
#$URL: svn://www.crystallography.net/cod/cif/1/53/05/1530511.cif $
#------------------------------------------------------------------------------
#
# This file is available in the Crystallography Open Database (COD),
# http://www.crystallography.net/
#
# All data on this site have been placed in the public domain by the
# contributors.
#
data_1530511
loop_
_publ_author_name
'Onoda, M.'
'Wada, H.'
_publ_section_title
;
 The titanium-sulphur system: structures of Ti6.9 S9 (18H) and Ti8.2 S11
 (33R) and the unit cells of 45R and 57R types of titanium sulphide
;
_journal_name_full               'Journal of the Less-Common Metals'
_journal_page_first              195
_journal_page_last               207
_journal_volume                  132
_journal_year                    1987
_chemical_formula_sum            'S9 Ti6.9'
_chemical_name_systematic        'Ti6.9 S9'
_space_group_IT_number           194
_symmetry_space_group_name_Hall  '-P 6c 2c'
_symmetry_space_group_name_H-M   'P 63/m m c'
_cell_angle_alpha                90
_cell_angle_beta                 90
_cell_angle_gamma                120
_cell_formula_units_Z            2
_cell_length_a                   3.4365
_cell_length_b                   3.4365
_cell_length_c                   51.65
_cell_volume                     528.243
_citation_journal_id_ASTM        JCOMAH
_cod_data_source_file            Onoda_JCOMAH_1987_1454.cif
_cod_data_source_block           S9Ti6.9
_cod_original_cell_volume        528.2429
_cod_database_code               1530511
loop_
_symmetry_equiv_pos_as_xyz
x,y,z
x-y,x,z+1/2
-y,x-y,z
-x,-y,z+1/2
-x+y,-x,z
y,-x+y,z+1/2
-y,-x,-z+1/2
x-y,-y,-z
x,x-y,-z+1/2
y,x,-z
-x+y,y,-z+1/2
-x,-x+y,-z
-x,-y,-z
-x+y,-x,-z-1/2
y,-x+y,-z
x,y,-z-1/2
x-y,x,-z
-y,x-y,-z-1/2
y,x,z-1/2
-x+y,y,z
-x,-x+y,z-1/2
-y,-x,z
x-y,-y,z-1/2
x,x-y,z
loop_
_atom_site_label
_atom_site_type_symbol
_atom_site_fract_x
_atom_site_fract_y
_atom_site_fract_z
_atom_site_occupancy
_atom_site_U_iso_or_equiv
S1 S 0.3333 0.6667 0.529 1 0.0
Ti2 Ti 0 0 0.059 0.47 0.0
S2 S 0.3333 0.6667 0.084 1 0.0
Ti1 Ti 0 0 0 0.98 0.0
Ti3 Ti 0.3333 0.6667 0.61 1 0.0
S4 S 0.3333 0.6667 0.194 1 0.0
Ti5 Ti 0 0 0.219 0.83 0.0
S5 S 0.3333 0.6667 0.75 1 0.0
S3 S 0 0 0.137 1 0.0
Ti4 Ti 0.3333 0.6667 0.666 0.65 0.0
