#------------------------------------------------------------------------------
#$Date: 2016-02-13 21:28:24 +0200 (Sat, 13 Feb 2016) $
#$Revision: 176429 $
#$URL: svn://www.crystallography.net/cod/cif/1/53/07/1530722.cif $
#------------------------------------------------------------------------------
#
# This file is available in the Crystallography Open Database (COD),
# http://www.crystallography.net/
#
# All data on this site have been placed in the public domain by the
# contributors.
#
data_1530722
loop_
_publ_author_name
'Schleid, T.'
'Meyer, G.'
'Morss, L.R.'
_publ_section_title
;
 Facile synthesis of U Cl4 and Th Cl4, metallothermic reductions of U Cl4
 wih alkali metals and crystal structure refinements of U Cl3, U Cl4 and
 Cs2 U Cl6
;
_journal_name_full               'Journal of the Less-Common Metals'
_journal_page_first              69
_journal_page_last               77
_journal_volume                  132
_journal_year                    1987
_chemical_formula_sum            'Cl4 U'
_chemical_name_systematic        'U Cl4'
_space_group_IT_number           141
_symmetry_space_group_name_Hall  'I 4bw 2bw -1bw'
_symmetry_space_group_name_H-M   'I 41/a m d :1'
_cell_angle_alpha                90
_cell_angle_beta                 90
_cell_angle_gamma                90
_cell_formula_units_Z            4
_cell_length_a                   8.3018
_cell_length_b                   8.3018
_cell_length_c                   7.4813
_cell_volume                     515.610
_citation_journal_id_ASTM        JCOMAH
_cod_data_source_file            Schleid_JCOMAH_1987_1451.cif
_cod_data_source_block           Cl4U1
_cod_original_cell_volume        515.6103
_cod_original_sg_symbol_Hall     '-I 4bd 2 (x+1/2,y+1/4,z+1/8)'
_cod_original_formula_sum        'Cl4 U1'
_cod_database_code               1530722
loop_
_symmetry_equiv_pos_as_xyz
x,y,z
-y,x+1/2,z+1/4
-x+1/2,-y+1/2,z+1/2
y+1/2,-x,z+3/4
x,-y+1/2,-z+1/4
y+1/2,x+1/2,-z+1/2
-x+1/2,y,-z+3/4
-y,-x,-z
-x,-y+1/2,-z+1/4
y,-x,-z
x-1/2,y,-z-1/4
-y-1/2,x+1/2,-z-1/2
-x,y,z
-y-1/2,-x,z-1/4
x-1/2,-y+1/2,z-1/2
y,x+1/2,z+1/4
x+1/2,y+1/2,z+1/2
-y+1/2,x+1,z+3/4
-x+1,-y+1,z+1
y+1,-x+1/2,z+5/4
x+1/2,-y+1,-z+3/4
y+1,x+1,-z+1
-x+1,y+1/2,-z+5/4
-y+1/2,-x+1/2,-z+1/2
-x+1/2,-y+1,-z+3/4
y+1/2,-x+1/2,-z+1/2
x,y+1/2,-z+1/4
-y,x+1,-z
-x+1/2,y+1/2,z+1/2
-y,-x+1/2,z+1/4
x,-y+1,z
y+1/2,x+1,z+3/4
loop_
_atom_site_label
_atom_site_type_symbol
_atom_site_fract_x
_atom_site_fract_y
_atom_site_fract_z
_atom_site_occupancy
_atom_site_U_iso_or_equiv
U1 U+4 0 0 0 1 0.0
Cl1 Cl-1 0 0.3113 0.9255 1 0.0
