#------------------------------------------------------------------------------
#$Date: 2016-02-13 21:28:24 +0200 (Sat, 13 Feb 2016) $
#$Revision: 176429 $
#$URL: svn://www.crystallography.net/cod/cif/1/53/06/1530615.cif $
#------------------------------------------------------------------------------
#
# This file is available in the Crystallography Open Database (COD),
# http://www.crystallography.net/
#
# All data on this site have been placed in the public domain by the
# contributors.
#
data_1530615
loop_
_publ_author_name
'Prokin, E.S.'
'Aksenov, B.S.'
'Ershova, Z.V.'
'Chebotarev, N.T.'
_publ_section_title
;
 Titanium, zirconium and hafnium monopolonides.
;
_journal_name_full               Radiokhimiya
_journal_page_first              684
_journal_page_last               686
_journal_volume                  20
_journal_year                    1978
_chemical_formula_sum            'Po Zr'
_chemical_name_systematic        'Zr Po'
_space_group_IT_number           194
_symmetry_space_group_name_Hall  '-P 6c 2c'
_symmetry_space_group_name_H-M   'P 63/m m c'
_cell_angle_alpha                90
_cell_angle_beta                 90
_cell_angle_gamma                120
_cell_formula_units_Z            2
_cell_length_a                   4.031
_cell_length_b                   4.031
_cell_length_c                   6.907
_cell_volume                     97.195
_citation_journal_id_ASTM        RADKAU
_cod_data_source_file            Prokin_RADKAU_1978_185.cif
_cod_data_source_block           Po1Zr1
_cod_original_cell_volume        97.1954
_cod_original_formula_sum        'Po1 Zr1'
_cod_database_code               1530615
loop_
_symmetry_equiv_pos_as_xyz
x,y,z
x-y,x,z+1/2
-y,x-y,z
-x,-y,z+1/2
-x+y,-x,z
y,-x+y,z+1/2
-y,-x,-z+1/2
x-y,-y,-z
x,x-y,-z+1/2
y,x,-z
-x+y,y,-z+1/2
-x,-x+y,-z
-x,-y,-z
-x+y,-x,-z-1/2
y,-x+y,-z
x,y,-z-1/2
x-y,x,-z
-y,x-y,-z-1/2
y,x,z-1/2
-x+y,y,z
-x,-x+y,z-1/2
-y,-x,z
x-y,-y,z-1/2
x,x-y,z
loop_
_atom_site_label
_atom_site_type_symbol
_atom_site_fract_x
_atom_site_fract_y
_atom_site_fract_z
_atom_site_occupancy
_atom_site_U_iso_or_equiv
Zr1 Zr 0 0 0 1 0.0
Po1 Po 0.3333 0.6667 0.25 1 0.0
