#------------------------------------------------------------------------------
#$Date: 2015-09-12 17:25:21 +0300 (Sat, 12 Sep 2015) $
#$Revision: 155936 $
#$URL: svn://www.crystallography.net/cod/cif/1/53/07/1530737.cif $
#------------------------------------------------------------------------------
#
# This file is available in the Crystallography Open Database (COD),
# http://www.crystallography.net/
#
# All data on this site have been placed in the public domain by the
# contributors.
#
data_1530737
loop_
_publ_author_name
'Semiletov, S.A.'
'Pinsker, Z.G.'
_publ_section_title
;
 The electron diffraction analysis of the system of alloys Bi-Se
;
_journal_name_full               'Doklady Akademii Nauk SSSR'
_journal_page_first              1079
_journal_page_last               1082
_journal_volume                  100
_journal_year                    1955
_chemical_formula_sum            'Bi3 Se4'
_chemical_name_systematic        'Bi3 Se4'
_space_group_IT_number           166
_symmetry_space_group_name_Hall  '-R 3 2"'
_symmetry_space_group_name_H-M   'R -3 m :H'
_cell_angle_alpha                90
_cell_angle_beta                 90
_cell_angle_gamma                120
_cell_formula_units_Z            3
_cell_length_a                   4.22
_cell_length_b                   4.22
_cell_length_c                   40.4
_cell_volume                     623.070
_citation_journal_id_ASTM        DANKAS
_cod_data_source_file            Semiletov_DANKAS_1955_1994.cif
_cod_data_source_block           Bi3Se4
_cod_original_cell_volume        623.0701
_cod_database_code               1530737
loop_
_symmetry_equiv_pos_as_xyz
x,y,z
-y,x-y,z
-x+y,-x,z
y,x,-z
-x,-x+y,-z
x-y,-y,-z
-x,-y,-z
y,-x+y,-z
x-y,x,-z
-y,-x,z
x,x-y,z
-x+y,y,z
x+2/3,y+1/3,z+1/3
-y+2/3,x-y+1/3,z+1/3
-x+y+2/3,-x+1/3,z+1/3
y+2/3,x+1/3,-z+1/3
-x+2/3,-x+y+1/3,-z+1/3
x-y+2/3,-y+1/3,-z+1/3
-x+2/3,-y+1/3,-z+1/3
y+2/3,-x+y+1/3,-z+1/3
x-y+2/3,x+1/3,-z+1/3
-y+2/3,-x+1/3,z+1/3
x+2/3,x-y+1/3,z+1/3
-x+y+2/3,y+1/3,z+1/3
x+1/3,y+2/3,z+2/3
-y+1/3,x-y+2/3,z+2/3
-x+y+1/3,-x+2/3,z+2/3
y+1/3,x+2/3,-z+2/3
-x+1/3,-x+y+2/3,-z+2/3
x-y+1/3,-y+2/3,-z+2/3
-x+1/3,-y+2/3,-z+2/3
y+1/3,-x+y+2/3,-z+2/3
x-y+1/3,x+2/3,-z+2/3
-y+1/3,-x+2/3,z+2/3
x+1/3,x-y+2/3,z+2/3
-x+y+1/3,y+2/3,z+2/3
loop_
_atom_site_label
_atom_site_type_symbol
_atom_site_fract_x
_atom_site_fract_y
_atom_site_fract_z
_atom_site_occupancy
_atom_site_U_iso_or_equiv
Bi2 Bi+2 0 0 0 1 0.0
Bi1 Bi+3 0 0 0.428 1 0.0
Se1 Se-2 0 0 0.139 1 0.0
Se2 Se-2 0 0 0.286 1 0.0
