#------------------------------------------------------------------------------
#$Date: 2015-09-12 17:25:29 +0300 (Sat, 12 Sep 2015) $
#$Revision: 155937 $
#$URL: svn://www.crystallography.net/cod/cif/1/53/07/1530738.cif $
#------------------------------------------------------------------------------
#
# This file is available in the Crystallography Open Database (COD),
# http://www.crystallography.net/
#
# All data on this site have been placed in the public domain by the
# contributors.
#
data_1530738
loop_
_publ_author_name
'Semiletov, S.A.'
_publ_section_title
;
 The electron diffraction analysis of the structure of antimony telluride
;
_journal_name_full               Kristallografiya
_journal_page_first              403
_journal_page_last               406
_journal_volume                  1
_journal_year                    1956
_chemical_formula_sum            'Sb2 Te3'
_chemical_name_systematic        'Sb2 Te3'
_space_group_IT_number           166
_symmetry_space_group_name_Hall  '-R 3 2"'
_symmetry_space_group_name_H-M   'R -3 m :H'
_cell_angle_alpha                90
_cell_angle_beta                 90
_cell_angle_gamma                120
_cell_formula_units_Z            3
_cell_length_a                   4.25
_cell_length_b                   4.25
_cell_length_c                   29.96
_cell_volume                     468.652
_citation_journal_id_ASTM        KRISAJ
_cod_data_source_file            Semiletov_KRISAJ_1956_1474.cif
_cod_data_source_block           Sb2Te3
_cod_original_cell_volume        468.6518
_cod_database_code               1530738
loop_
_symmetry_equiv_pos_as_xyz
x,y,z
-y,x-y,z
-x+y,-x,z
y,x,-z
-x,-x+y,-z
x-y,-y,-z
-x,-y,-z
y,-x+y,-z
x-y,x,-z
-y,-x,z
x,x-y,z
-x+y,y,z
x+2/3,y+1/3,z+1/3
-y+2/3,x-y+1/3,z+1/3
-x+y+2/3,-x+1/3,z+1/3
y+2/3,x+1/3,-z+1/3
-x+2/3,-x+y+1/3,-z+1/3
x-y+2/3,-y+1/3,-z+1/3
-x+2/3,-y+1/3,-z+1/3
y+2/3,-x+y+1/3,-z+1/3
x-y+2/3,x+1/3,-z+1/3
-y+2/3,-x+1/3,z+1/3
x+2/3,x-y+1/3,z+1/3
-x+y+2/3,y+1/3,z+1/3
x+1/3,y+2/3,z+2/3
-y+1/3,x-y+2/3,z+2/3
-x+y+1/3,-x+2/3,z+2/3
y+1/3,x+2/3,-z+2/3
-x+1/3,-x+y+2/3,-z+2/3
x-y+1/3,-y+2/3,-z+2/3
-x+1/3,-y+2/3,-z+2/3
y+1/3,-x+y+2/3,-z+2/3
x-y+1/3,x+2/3,-z+2/3
-y+1/3,-x+2/3,z+2/3
x+1/3,x-y+2/3,z+2/3
-x+y+1/3,y+2/3,z+2/3
loop_
_atom_site_label
_atom_site_type_symbol
_atom_site_fract_x
_atom_site_fract_y
_atom_site_fract_z
_atom_site_occupancy
_atom_site_U_iso_or_equiv
Sb1 Sb+3 0 0 0.6 1 0.0
Te1 Te-2 0 0 0.789 1 0.0
Te2 Te-2 0 0 0 1 0.0
