#------------------------------------------------------------------------------
#$Date: 2015-07-11 22:27:31 +0300 (Sat, 11 Jul 2015) $
#$Revision: 145843 $
#$URL: svn://www.crystallography.net/cod/cif/7/22/12/7221231.cif $
#------------------------------------------------------------------------------
#
# This file is available in the Crystallography Open Database (COD),
# http://www.crystallography.net/
#
# All data on this site have been placed in the public domain by the
# contributors.
#
data_7221231
loop_
_publ_author_name
'Mueller, W.'
'Stoehr, J.'
_publ_section_title
;
 Die Kristallstruktur von Li2 Ga und Li3 Ga2
;
_journal_name_full
;
Zeitschrift fuer Naturforschung, Teil B. Anorganische Chemie, Organische 
Chemie (2,1947-32,1977)
;
_journal_page_first              631
_journal_page_last               636
_journal_volume                  32
_journal_year                    1977
_chemical_formula_sum            'Ga2 Li3'
_chemical_name_systematic        'Li3 Ga2'
_space_group_IT_number           166
_symmetry_space_group_name_Hall  '-R 3 2"'
_symmetry_space_group_name_H-M   'R -3 m :H'
_cell_angle_alpha                90
_cell_angle_beta                 90
_cell_angle_gamma                120
_cell_formula_units_Z            3
_cell_length_a                   4.367
_cell_length_b                   4.367
_cell_length_c                   13.896
_cell_volume                     229.502
_citation_journal_id_ASTM        ZENBAX
_cod_data_source_file            Mueller_ZENBAX_1977_150.cif
_cod_data_source_block           Ga2Li3
_cod_original_cell_volume        229.5022
_cod_database_code               7221231
loop_
_symmetry_equiv_pos_as_xyz
x,y,z
-y,x-y,z
-x+y,-x,z
y,x,-z
-x,-x+y,-z
x-y,-y,-z
-x,-y,-z
y,-x+y,-z
x-y,x,-z
-y,-x,z
x,x-y,z
-x+y,y,z
x+2/3,y+1/3,z+1/3
-y+2/3,x-y+1/3,z+1/3
-x+y+2/3,-x+1/3,z+1/3
y+2/3,x+1/3,-z+1/3
-x+2/3,-x+y+1/3,-z+1/3
x-y+2/3,-y+1/3,-z+1/3
-x+2/3,-y+1/3,-z+1/3
y+2/3,-x+y+1/3,-z+1/3
x-y+2/3,x+1/3,-z+1/3
-y+2/3,-x+1/3,z+1/3
x+2/3,x-y+1/3,z+1/3
-x+y+2/3,y+1/3,z+1/3
x+1/3,y+2/3,z+2/3
-y+1/3,x-y+2/3,z+2/3
-x+y+1/3,-x+2/3,z+2/3
y+1/3,x+2/3,-z+2/3
-x+1/3,-x+y+2/3,-z+2/3
x-y+1/3,-y+2/3,-z+2/3
-x+1/3,-y+2/3,-z+2/3
y+1/3,-x+y+2/3,-z+2/3
x-y+1/3,x+2/3,-z+2/3
-y+1/3,-x+2/3,z+2/3
x+1/3,x-y+2/3,z+2/3
-x+y+1/3,y+2/3,z+2/3
loop_
_atom_site_label
_atom_site_type_symbol
_atom_site_fract_x
_atom_site_fract_y
_atom_site_fract_z
_atom_site_occupancy
_atom_site_U_iso_or_equiv
Li2 Li 0 0 0.405 1 0.0
Li1 Li 0 0 0 1 0.0
Ga1 Ga 0 0 0.8013 1 0.0
