#------------------------------------------------------------------------------
#$Date: 2016-02-13 14:50:18 +0200 (Sat, 13 Feb 2016) $
#$Revision: 176428 $
#$URL: svn://www.crystallography.net/cod/cif/7/22/16/7221650.cif $
#------------------------------------------------------------------------------
#
# This file is available in the Crystallography Open Database (COD),
# http://www.crystallography.net/
#
# All data on this site have been placed in the public domain by the
# contributors.
#
data_7221650
loop_
_publ_author_name
'Sadovnikov, S. I.'
'Gusev, A. I.'
'Rempel, A. A.'
_publ_section_title
;
 An in situ high-temperature scanning electron microscopy study of
 acanthite-argentite phase transformation in nanocrystalline silver
 sulfide powder.
;
_journal_issue                   32
_journal_name_full               'Physical chemistry chemical physics : PCCP'
_journal_page_first              20495
_journal_page_last               20501
_journal_paper_doi               10.1039/c5cp02499d
_journal_volume                  17
_journal_year                    2015
_chemical_compound_source
;
Institute of Solid State Chemistry, Ekaterinburg (Russia)  
;
_chemical_formula_analytical     'Ag2 S'
_chemical_formula_moiety         'Ag2 S'
_chemical_formula_structural     'S2 Ag4'
_chemical_formula_sum            'Ag2 S'
_chemical_formula_weight         247.795
_chemical_name_common            Argentite
_chemical_name_mineral           Argentite
_chemical_name_systematic        'Silver sulfide'
_space_group_crystal_system      cubic
_space_group_IT_number           229
_space_group_name_H-M_alt        'I m -3 m'
_symmetry_cell_setting           cubic
_symmetry_Int_Tables_number      229
_symmetry_space_group_name_Hall  '-I 4 2 3'
_symmetry_space_group_name_H-M   'I m -3 m'
_audit_creation_date             '14.07.2015 12:16:14'
_audit_creation_method
;
Generated by PHILIPS XPert Plus 1.0. Program for Crystallography and 
Rietveld analysis Philips Analytical B. V. 
(C) 1999 Koninklijke Philips Electronics N. V.
;
_audit_update_record
;
2015-07-14 deposited with the CCDC.
2015-07-15 downloaded from the CCDC.
;
_cell_angle_alpha                90
_cell_angle_beta                 90
_cell_angle_gamma                90
_cell_formula_units_Z            2
_cell_length_a                   4.874100
_cell_length_b                   4.874100
_cell_length_c                   4.874100
_cell_measurement_temperature    503
_cell_volume                     115.793
_diffrn_ambient_temperature      503
_diffrn_measurement_device_type  'PHILIPS XPERT-PRO'
_diffrn_radiation_probe          x-ray
_diffrn_radiation_type           'Cu K\a'
_diffrn_radiation_wavelength     1.54188
_diffrn_reflns_av_R_equivalents  0.000754
_diffrn_reflns_limit_h_max       4
_diffrn_reflns_limit_h_min       0
_diffrn_reflns_limit_k_max       4
_diffrn_reflns_limit_k_min       0
_diffrn_reflns_limit_l_max       4
_diffrn_reflns_limit_l_min       1
_diffrn_reflns_number            2384
_diffrn_reflns_theta_max         81.970
_diffrn_reflns_theta_min         20.012
_diffrn_source_target            Cu
_exptl_absorpt_coefficient_mu    140
_exptl_crystal_colour            black
_exptl_crystal_density_diffrn    7.11
_exptl_crystal_density_method    'not measured'
_exptl_crystal_description       powder
_exptl_crystal_F_000             220
_pd_calc_method                  'Rietveld Refinement'
_pd_char_colour                  black
_pd_meas_2theta_range_inc        0.026
_pd_meas_2theta_range_max        81.970
_pd_meas_2theta_range_min        20.012
_pd_meas_number_of_points        2384
_pd_proc_2theta_range_inc        0.026
_pd_proc_2theta_range_max        81.970
_pd_proc_2theta_range_min        20.012
_pd_proc_info_datetime           2015-04-21T14:40
_pd_proc_ls_prof_R_factor        0.01645
_pd_proc_ls_prof_wR_expected     0.01405
_pd_proc_ls_prof_wR_factor       0.02071
_pd_proc_number_of_points        2384
_pd_spec_mounting                powder
_pd_spec_mount_mode              reflection
_refine_ls_goodness_of_fit_all   1.872
_refine_ls_goodness_of_fit_ref   1.872
_refine_ls_number_parameters     28
_refine_ls_number_reflns         16
_refine_ls_number_restraints     0
_refine_ls_restrained_S_all      0.00986
_refine_ls_R_factor_gt           0.00754
_refine_ls_R_I_factor            0.00754
_refine_ls_shift/su_max          0.002
_refine_ls_shift/su_mean         0.000
_refine_ls_wR_factor_ref         0.02071
_reflns_d_resolution_high        1.217
_reflns_d_resolution_low         3.461
_reflns_limit_h_max              2
_reflns_limit_h_min              0
_reflns_limit_k_max              2
_reflns_limit_k_min              0
_reflns_limit_l_max              4
_reflns_limit_l_min              1
_reflns_number_observed          16
_reflns_number_total             8
_cod_data_source_file            c5cp02499d3.cif
_cod_data_source_block           Im-3m
_cod_depositor_comments
;
The following automatic conversions were performed:

'_symmetry_cell_setting' value 'Cubic' changed to 'cubic' according
to
/usr/data/users/saulius/crontab/automatic-downloads/rss-feeds/RSC/lib/dictionaries/cif_core.dic
dictionary named 'cif_core.dic' version 2.4.2 from 2011-04-26.

Automatic conversion script
Id: cif_fix_values 3271 2015-04-21 07:52:19Z andrius 

 Adding full bibliography for 7221650.cif.
;
_cod_original_sg_symbol_H-M      Im-3m
_cod_database_code               7221650
loop_
_symmetry_equiv_pos_as_xyz
' X,  Y,  Z'
'-Y,  X,  Z'
'-X, -Y,  Z'
' Y, -X,  Z'
' X, -Z,  Y'
' X, -Y, -Z'
' X,  Z, -Y'
' Z,  Y, -X'
'-X,  Y, -Z'
'-Z,  Y,  X'
' Z,  X,  Y'
' Y,  Z,  X'
'-Y, -Z,  X'
' Z, -X, -Y'
'-Y,  Z, -X'
'-Z, -X,  Y'
'-Z,  X, -Y'
' Y, -Z, -X'
' Y,  X, -Z'
'-Y, -X, -Z'
'-X,  Z,  Y'
'-X, -Z, -Y'
' Z, -Y,  X'
'-Z, -Y, -X'
'-X, -Y, -Z'
' Y, -X, -Z'
' X,  Y, -Z'
'-Y,  X, -Z'
'-X,  Z, -Y'
'-X,  Y,  Z'
'-X, -Z,  Y'
'-Z, -Y,  X'
' X, -Y,  Z'
' Z, -Y, -X'
'-Z, -X, -Y'
'-Y, -Z, -X'
' Y,  Z, -X'
'-Z,  X,  Y'
' Y, -Z,  X'
' Z,  X, -Y'
' Z, -X,  Y'
'-Y,  Z,  X'
'-Y, -X,  Z'
' Y,  X,  Z'
' X, -Z, -Y'
' X,  Z,  Y'
'-Z,  Y, -X'
' Z,  Y,  X'
' X+1/2,  Y+1/2,  Z+1/2'
'-Y+1/2,  X+1/2,  Z+1/2'
'-X+1/2, -Y+1/2,  Z+1/2'
' Y+1/2, -X+1/2,  Z+1/2'
' X+1/2, -Z+1/2,  Y+1/2'
' X+1/2, -Y+1/2, -Z+1/2'
' X+1/2,  Z+1/2, -Y+1/2'
' Z+1/2,  Y+1/2, -X+1/2'
'-X+1/2,  Y+1/2, -Z+1/2'
'-Z+1/2,  Y+1/2,  X+1/2'
' Z+1/2,  X+1/2,  Y+1/2'
' Y+1/2,  Z+1/2,  X+1/2'
'-Y+1/2, -Z+1/2,  X+1/2'
' Z+1/2, -X+1/2, -Y+1/2'
'-Y+1/2,  Z+1/2, -X+1/2'
'-Z+1/2, -X+1/2,  Y+1/2'
'-Z+1/2,  X+1/2, -Y+1/2'
' Y+1/2, -Z+1/2, -X+1/2'
' Y+1/2,  X+1/2, -Z+1/2'
'-Y+1/2, -X+1/2, -Z+1/2'
'-X+1/2,  Z+1/2,  Y+1/2'
'-X+1/2, -Z+1/2, -Y+1/2'
' Z+1/2, -Y+1/2,  X+1/2'
'-Z+1/2, -Y+1/2, -X+1/2'
'-X+1/2, -Y+1/2, -Z+1/2'
' Y+1/2, -X+1/2, -Z+1/2'
' X+1/2,  Y+1/2, -Z+1/2'
'-Y+1/2,  X+1/2, -Z+1/2'
'-X+1/2,  Z+1/2, -Y+1/2'
'-X+1/2,  Y+1/2,  Z+1/2'
'-X+1/2, -Z+1/2,  Y+1/2'
'-Z+1/2, -Y+1/2,  X+1/2'
' X+1/2, -Y+1/2,  Z+1/2'
' Z+1/2, -Y+1/2, -X+1/2'
'-Z+1/2, -X+1/2, -Y+1/2'
'-Y+1/2, -Z+1/2, -X+1/2'
' Y+1/2,  Z+1/2, -X+1/2'
'-Z+1/2,  X+1/2,  Y+1/2'
' Y+1/2, -Z+1/2,  X+1/2'
' Z+1/2,  X+1/2, -Y+1/2'
' Z+1/2, -X+1/2,  Y+1/2'
'-Y+1/2,  Z+1/2,  X+1/2'
'-Y+1/2, -X+1/2,  Z+1/2'
' Y+1/2,  X+1/2,  Z+1/2'
' X+1/2, -Z+1/2, -Y+1/2'
' X+1/2,  Z+1/2,  Y+1/2'
'-Z+1/2,  Y+1/2, -X+1/2'
' Z+1/2,  Y+1/2,  X+1/2'
loop_
_atom_site_label
_atom_site_type_symbol
_atom_site_fract_x
_atom_site_fract_y
_atom_site_fract_z
_atom_site_U_iso_or_equiv
_atom_site_thermal_displace_type
_atom_site_occupancy
_atom_site_symmetry_multiplicity
_atom_site_Wyckoff_symbol
S S 0.000000 0.000000 0.000000 0.50 Uiso 1.000000 2 a
Ag1 AG 0.000000 0.500000 0.500000 0.50 Uiso 0.097870 6 b
Ag2 AG 0.000000 0.330650 0.412270 0.50 Uiso 0.071100 48 j
loop_
_atom_type_symbol
_atom_type_description
_atom_type_scat_dispersion_real
_atom_type_scat_dispersion_imag
_atom_type_scat_source
S S 0.1246 0.1234 'International Tables Vol C Tables 4.2.6.8 and 6.1.1.4'
Ag Ag -0.8971 1.1015 'International Tables Vol C Tables 4.2.6.8 and 6.1.1.4'
loop_
_geom_angle_atom_site_label_1
_geom_angle_atom_site_label_2
_geom_angle_atom_site_label_3
_geom_angle
Ag1 S Ag1 180
Ag1 S Ag1 90
Ag1 S Ag2 90
Ag1 S Ag2 20.88
Ag1 S Ag2 159.12
Ag1 S Ag2 141.27
Ag1 S Ag2 80.56
Ag1 S Ag2 38.77
Ag1 S Ag2 99.44
Ag1 S Ag2 128.73
Ag1 S Ag2 71.55
Ag1 S Ag2 51.27
Ag1 S Ag2 108.45
S Ag1 S 180
S Ag1 Ag1 90
S Ag1 Ag2 90
S Ag1 Ag2 75.14
S Ag1 Ag2 104.86
S Ag1 Ag2 123.08
S Ag1 Ag2 73.93
S Ag1 Ag2 67.67
S Ag1 Ag2 56.92
S Ag1 Ag2 112.33
S Ag1 Ag2 106.07
S Ag2 S 109.02
S Ag2 Ag1 156.12
S Ag2 Ag1 76.79
S Ag2 Ag1 61.06
S Ag2 Ag1 157.34
S Ag2 Ag1 66.13
S Ag2 Ag1 69.12
S Ag2 Ag1 51.53
S Ag2 Ag1 156.94
S Ag2 Ag1 91.80
S Ag2 Ag1 75.81
S Ag2 Ag1 105.30
S Ag2 Ag2 156.12
S Ag2 Ag2 55.01
S Ag2 Ag2 59.61
S Ag2 Ag2 55.38
S Ag2 Ag2 160.09
S Ag2 Ag2 89.38
S Ag2 Ag2 74.31
S Ag2 Ag2 65.14
S Ag2 Ag2 134.94
S Ag2 Ag2 74.12
S Ag2 Ag2 111.12
S Ag2 Ag2 158.88
S Ag2 Ag2 83.73
S Ag2 Ag2 173.73
S Ag2 Ag2 55.74
S Ag2 Ag2 80.82
S Ag2 Ag2 56.52
S Ag2 Ag2 61.78
S Ag2 Ag2 137.74
S Ag2 Ag2 61.68
S Ag2 Ag2 128.73
S Ag2 Ag2 141.27
S Ag2 Ag2 81.94
S Ag2 Ag2 68.59
S Ag2 Ag2 63.74
S Ag2 Ag2 59.17
S Ag2 Ag2 153.47
S Ag2 Ag2 81.94
S Ag2 Ag2 69.12
S Ag2 Ag2 54.01
S Ag2 Ag2 157.72
S Ag2 Ag2 160.22
S Ag2 Ag2 86.23
S Ag2 Ag2 63.64
S Ag2 Ag2 56.69
S Ag2 Ag2 102.76
S Ag2 Ag2 60.02
S Ag2 Ag2 101.66
S Ag2 Ag2 84.98
S Ag2 Ag2 139.62
S Ag2 Ag2 71.94
S Ag2 Ag2 130.98
S Ag2 Ag2 84.98
S Ag2 Ag2 54.36
S Ag2 Ag2 56.69
S Ag2 Ag2 135.62
S Ag2 Ag2 126.93
S Ag2 Ag2 86.23
S Ag2 Ag2 120.15
S Ag2 Ag2 71.94
S Ag2 Ag2 75.40
S Ag2 Ag2 83.81
S Ag2 Ag2 70.14
S Ag2 Ag2 54.71
S Ag2 Ag2 164.85
S Ag2 Ag2 77.14
S Ag2 Ag2 56.99
S Ag2 Ag2 116.00
S Ag2 Ag2 79.87
S Ag2 Ag2 140.95
S Ag2 Ag2 96.90
S Ag2 S 138.24
loop_
_geom_bond_atom_site_label_1
_geom_bond_atom_site_label_2
_geom_bond_distance
S Ag1 2.4371
S Ag2 2.5759
S Ag2 2.6083
Ag1 Ag1 2.4371
Ag1 Ag2 0.9296
Ag1 Ag2 1.6674
Ag1 Ag2 2.9529
Ag1 Ag2 2.9812
Ag1 Ag2 2.1724
Ag2 Ag2 1.8592
Ag2 Ag2 3.0099
Ag2 Ag2 2.6064
Ag2 Ag2 2.9834
Ag2 Ag2 2.2411
Ag2 Ag2 2.8645
Ag2 Ag2 1.5053
Ag2 Ag2 1.3147
Ag2 Ag2 0.5628
Ag2 Ag2 1.7721
Ag2 Ag2 2.9569
Ag2 Ag2 0.9919
Ag2 Ag2 2.8418
Ag2 Ag2 2.5110
Ag2 Ag2 1.6509
Ag2 Ag2 0.8552
Ag2 Ag2 2.4343
Ag2 Ag2 1.9659
Ag2 Ag2 2.2792
Ag2 Ag2 2.7022
Ag2 Ag2 2.2792
loop_
_pd_meas_intensity_total
_pd_calc_intensity_total
9353.0000 9375.0000
9376.0000 9353.0000
9157.0000 9322.0000
9254.0000 9298.0000
9243.0000 9282.0000
8988.0000 9249.0000
9069.0000 9229.0000
9126.0000 9205.0000
9192.0000 9169.0000
8880.0000 9154.0000
8905.0000 9118.0000
9086.0000 9103.0000
9151.0000 9068.0000
9051.0000 9056.0000
9038.0000 9018.0000
9029.0000 9004.0000
8945.0000 8970.0000
8970.0000 8969.0000
9015.0000 8967.0000
9005.0000 8949.0000
9120.0000 8942.0000
8954.0000 8939.0000
8782.0000 8928.0000
8774.0000 8912.0000
8804.0000 8915.0000
8926.0000 8897.0000
9020.0000 8888.0000
9023.0000 8882.0000
9026.0000 8878.0000
8937.0000 8875.0000
8943.0000 8855.0000
8902.0000 8843.0000
8853.0000 8841.0000
8791.0000 8829.0000
8935.0000 8832.0000
8996.0000 8829.0000
8875.0000 8812.0000
8868.0000 8797.0000
8985.0000 8793.0000
9004.0000 8785.0000
8820.0000 8782.0000
8858.0000 8773.0000
8940.0000 8753.0000
8940.0000 8745.0000
8889.0000 8743.0000
8851.0000 8733.0000
9022.0000 8727.0000
8974.0000 8727.0000
8769.0000 8721.0000
8696.0000 8696.0000
8791.0000 8689.0000
8757.0000 8685.0000
8628.0000 8678.0000
8716.0000 8665.0000
8786.0000 8670.0000
8830.0000 8650.0000
8838.0000 8650.0000
8755.0000 8633.0000
8685.0000 8631.0000
8699.0000 8617.0000
8700.0000 8610.0000
8682.0000 8603.0000
8653.0000 8603.0000
8580.0000 8595.0000
8674.0000 8589.0000
8735.0000 8567.0000
8733.0000 8557.0000
8632.0000 8559.0000
8676.0000 8557.0000
8677.0000 8533.0000
8746.0000 8537.0000
8617.0000 8530.0000
8499.0000 8515.0000
8648.0000 8506.0000
8693.0000 8507.0000
8729.0000 8496.0000
8705.0000 8483.0000
8799.0000 8477.0000
8680.0000 8461.0000
8635.0000 8464.0000
8449.0000 8454.0000
8534.0000 8438.0000
8617.0000 8439.0000
8649.0000 8426.0000
8666.0000 8416.0000
8728.0000 8414.0000
8542.0000 8405.0000
8592.0000 8393.0000
8589.0000 8381.0000
8503.0000 8378.0000
8475.0000 8361.0000
8491.0000 8368.0000
8573.0000 8350.0000
8548.0000 8336.0000
8552.0000 8331.0000
8497.0000 8324.0000
8518.0000 8318.0000
8444.0000 8309.0000
8422.0000 8297.0000
8285.0000 8298.0000
8540.0000 8288.0000
8612.0000 8278.0000
8547.0000 8279.0000
8344.0000 8269.0000
8584.0000 8262.0000
8420.0000 8237.0000
8463.0000 8235.0000
8576.0000 8230.0000
8501.0000 8220.0000
8540.0000 8214.0000
8522.0000 8207.0000
8278.0000 8193.0000
8129.0000 8180.0000
8241.0000 8181.0000
8328.0000 8174.0000
8539.0000 8181.0000
8381.0000 8187.0000
8259.0000 8171.0000
8448.0000 8176.0000
8467.0000 8174.0000
8412.0000 8173.0000
8292.0000 8160.0000
8381.0000 8173.0000
8350.0000 8158.0000
8258.0000 8155.0000
8285.0000 8161.0000
8219.0000 8149.0000
8272.0000 8145.0000
8209.0000 8153.0000
8293.0000 8143.0000
8348.0000 8140.0000
8225.0000 8143.0000
8330.0000 8136.0000
8203.0000 8136.0000
8248.0000 8141.0000
8346.0000 8127.0000
8284.0000 8137.0000
8311.0000 8125.0000
8240.0000 8125.0000
8137.0000 8127.0000
8211.0000 8127.0000
8251.0000 8128.0000
8247.0000 8122.0000
8176.0000 8121.0000
8231.0000 8121.0000
8392.0000 8114.0000
8248.0000 8115.0000
8157.0000 8111.0000
8126.0000 8114.0000
8172.0000 8105.0000
8344.0000 8110.0000
8301.0000 8103.0000
8225.0000 8097.0000
8176.0000 8100.0000
8146.0000 8086.0000
8244.0000 8090.0000
8258.0000 8084.0000
8248.0000 8089.0000
8204.0000 8080.0000
8098.0000 8080.0000
8125.0000 8087.0000
8145.0000 8086.0000
8201.0000 8069.0000
8265.0000 8075.0000
8242.0000 8068.0000
8028.0000 8068.0000
7996.0000 8070.0000
8066.0000 8066.0000
8042.0000 8058.0000
8124.0000 8066.0000
8184.0000 8051.0000
8202.0000 8049.0000
8000.0000 8060.0000
8121.0000 8053.0000
8271.0000 8056.0000
8297.0000 8044.0000
8218.0000 8035.0000
8174.0000 8043.0000
8147.0000 8032.0000
8099.0000 8035.0000
7988.0000 8031.0000
8038.0000 8023.0000
8007.0000 8027.0000
8016.0000 8033.0000
8275.0000 8019.0000
8141.0000 8028.0000
7899.0000 8016.0000
8138.0000 8021.0000
7990.0000 8014.0000
8069.0000 8018.0000
8213.0000 8016.0000
8122.0000 8013.0000
8166.0000 8072.0000
8056.0000 8069.0000
8221.0000 8106.0000
8136.0000 8111.0000
8110.0000 8102.0000
8284.0000 8112.0000
8086.0000 8113.0000
8374.0000 8112.0000
8236.0000 8101.0000
8175.0000 8113.0000
8158.0000 8116.0000
8268.0000 8120.0000
8153.0000 8116.0000
8202.0000 8116.0000
8269.0000 8133.0000
8051.0000 8139.0000
8002.0000 8136.0000
8149.0000 8152.0000
8277.0000 8170.0000
8356.0000 8201.0000
8321.0000 8238.0000
8423.0000 8291.0000
8663.0000 8407.0000
8905.0000 8659.0000
9368.0000 9183.0000
10100.0000 10082.0000
11565.0000 11317.0000
12595.0000 12457.0000
13187.0000 12811.0000
12423.0000 12297.0000
11155.0000 11430.0000
10254.0000 10336.0000
9236.0000 9373.0000
8433.0000 8718.0000
8138.0000 8343.0000
8091.0000 8162.0000
8105.0000 8062.0000
8078.0000 8000.0000
8055.0000 7975.0000
7924.0000 7942.0000
7936.0000 7920.0000
7901.0000 7912.0000
8052.0000 7912.0000
8003.0000 7896.0000
7909.0000 7908.0000
7994.0000 7901.0000
7943.0000 7900.0000
7971.0000 7892.0000
7912.0000 7901.0000
7939.0000 7888.0000
7889.0000 7891.0000
7890.0000 7889.0000
7860.0000 7874.0000
7875.0000 7886.0000
7968.0000 7871.0000
7944.0000 7880.0000
7961.0000 7876.0000
7896.0000 7863.0000
7800.0000 7870.0000
7974.0000 7864.0000
7970.0000 7858.0000
7900.0000 7856.0000
7997.0000 7863.0000
7927.0000 7861.0000
7757.0000 7847.0000
7770.0000 7861.0000
7894.0000 7863.0000
7841.0000 7862.0000
7868.0000 7854.0000
7914.0000 7848.0000
7851.0000 7857.0000
7868.0000 7856.0000
7883.0000 7855.0000
7836.0000 7862.0000
7845.0000 7853.0000
7876.0000 7866.0000
7920.0000 7858.0000
7934.0000 7854.0000
7848.0000 7858.0000
7789.0000 7853.0000
7841.0000 7871.0000
7866.0000 7860.0000
7931.0000 7855.0000
7763.0000 7865.0000
7848.0000 7861.0000
7933.0000 7858.0000
7900.0000 7862.0000
7909.0000 7871.0000
7877.0000 7858.0000
7838.0000 7873.0000
7839.0000 7874.0000
7860.0000 7860.0000
7870.0000 7871.0000
7904.0000 7870.0000
7775.0000 7865.0000
7960.0000 7873.0000
8014.0000 7875.0000
7929.0000 7879.0000
7835.0000 7875.0000
7866.0000 7871.0000
7761.0000 7872.0000
7758.0000 7870.0000
7793.0000 7869.0000
7815.0000 7874.0000
7784.0000 7880.0000
7901.0000 7873.0000
8032.0000 7880.0000
7889.0000 7881.0000
7775.0000 7875.0000
7825.0000 7874.0000
8025.0000 7881.0000
7705.0000 7881.0000
7957.0000 7887.0000
7739.0000 7884.0000
7707.0000 7889.0000
7666.0000 7886.0000
7746.0000 7898.0000
7732.0000 7905.0000
7914.0000 7894.0000
7913.0000 7895.0000
7671.0000 7902.0000
7791.0000 7901.0000
7836.0000 7913.0000
7905.0000 7913.0000
7790.0000 7906.0000
7593.0000 7922.0000
7822.0000 7925.0000
7938.0000 7919.0000
7782.0000 7925.0000
7852.0000 7926.0000
7859.0000 7918.0000
7844.0000 7924.0000
7876.0000 7941.0000
7967.0000 7929.0000
7898.0000 7934.0000
7873.0000 7947.0000
7912.0000 7954.0000
7821.0000 7954.0000
7888.0000 7953.0000
7866.0000 7951.0000
7833.0000 7957.0000
7824.0000 7951.0000
7991.0000 7961.0000
7991.0000 7964.0000
8006.0000 7964.0000
7962.0000 7976.0000
7828.0000 7970.0000
7703.0000 7970.0000
7817.0000 7980.0000
7957.0000 7981.0000
7958.0000 7985.0000
7849.0000 7986.0000
7832.0000 7990.0000
7880.0000 7988.0000
7862.0000 7990.0000
7829.0000 7996.0000
7866.0000 7998.0000
7950.0000 7997.0000
7930.0000 7998.0000
7924.0000 8013.0000
7968.0000 8007.0000
7915.0000 8010.0000
7931.0000 8011.0000
7867.0000 8020.0000
7773.0000 8018.0000
7820.0000 8032.0000
7837.0000 8034.0000
7948.0000 8023.0000
7989.0000 8031.0000
7943.0000 8041.0000
7894.0000 8049.0000
7885.0000 8043.0000
8058.0000 8040.0000
8067.0000 8052.0000
7892.0000 8058.0000
7914.0000 8046.0000
7996.0000 8060.0000
7916.0000 8055.0000
7948.0000 8054.0000
7963.0000 8071.0000
8042.0000 8064.0000
7936.0000 8068.0000
7985.0000 8067.0000
8052.0000 8082.0000
8004.0000 8072.0000
7961.0000 8085.0000
7967.0000 8076.0000
7968.0000 8080.0000
7905.0000 8091.0000
8019.0000 8101.0000
8012.0000 8097.0000
7932.0000 8090.0000
7861.0000 8093.0000
8035.0000 8109.0000
8153.0000 8103.0000
8191.0000 8108.0000
8115.0000 8107.0000
7978.0000 8117.0000
8016.0000 8122.0000
8034.0000 8125.0000
7956.0000 8121.0000
7845.0000 8119.0000
8075.0000 8120.0000
8045.0000 8128.0000
8097.0000 8128.0000
8085.0000 8137.0000
8189.0000 8136.0000
8145.0000 8152.0000
7960.0000 8152.0000
8341.0000 8160.0000
8003.0000 8154.0000
8164.0000 8160.0000
8168.0000 8169.0000
8079.0000 8175.0000
8142.0000 8191.0000
7975.0000 8192.0000
8040.0000 8191.0000
8212.0000 8206.0000
7969.0000 8204.0000
8142.0000 8222.0000
8212.0000 8225.0000
8167.0000 8222.0000
8147.0000 8225.0000
8220.0000 8233.0000
8221.0000 8240.0000
8238.0000 8243.0000
8303.0000 8261.0000
8067.0000 8265.0000
8093.0000 8262.0000
8137.0000 8276.0000
8127.0000 8289.0000
8207.0000 8285.0000
8291.0000 8283.0000
8020.0000 8289.0000
8264.0000 8305.0000
8311.0000 8303.0000
8189.0000 8314.0000
8187.0000 8318.0000
8219.0000 8320.0000
8331.0000 8328.0000
8185.0000 8334.0000
8194.0000 8348.0000
8217.0000 8358.0000
8328.0000 8348.0000
8432.0000 8366.0000
8235.0000 8376.0000
8205.0000 8371.0000
8164.0000 8371.0000
8205.0000 8382.0000
8322.0000 8395.0000
8286.0000 8401.0000
8337.0000 8403.0000
8384.0000 8400.0000
8289.0000 8421.0000
8335.0000 8418.0000
8428.0000 8426.0000
8334.0000 8429.0000
8255.0000 8428.0000
8284.0000 8445.0000
8300.0000 8448.0000
8333.0000 8449.0000
8406.0000 8454.0000
8374.0000 8465.0000
8314.0000 8466.0000
8381.0000 8483.0000
8483.0000 8481.0000
8454.0000 8493.0000
8420.0000 8484.0000
8488.0000 8503.0000
8465.0000 8503.0000
8496.0000 8502.0000
8520.0000 8513.0000
8481.0000 8517.0000
8461.0000 8521.0000
8345.0000 8520.0000
8440.0000 8529.0000
8462.0000 8538.0000
8358.0000 8549.0000
8443.0000 8548.0000
8501.0000 8555.0000
8539.0000 8562.0000
8607.0000 8561.0000
8491.0000 8581.0000
8467.0000 8580.0000
8455.0000 8573.0000
8457.0000 8581.0000
8517.0000 8591.0000
8665.0000 8596.0000
8743.0000 8605.0000
8515.0000 8605.0000
8573.0000 8609.0000
8623.0000 8607.0000
8623.0000 8609.0000
8607.0000 8614.0000
8692.0000 8628.0000
8526.0000 8631.0000
8695.0000 8636.0000
8610.0000 8628.0000
8635.0000 8637.0000
8550.0000 8628.0000
8484.0000 8639.0000
8582.0000 8646.0000
8574.0000 8641.0000
8613.0000 8645.0000
8528.0000 8656.0000
8725.0000 8650.0000
8652.0000 8655.0000
8693.0000 8661.0000
8701.0000 8653.0000
8660.0000 8650.0000
8694.0000 8669.0000
8672.0000 8667.0000
8584.0000 8674.0000
8806.0000 8676.0000
8919.0000 8678.0000
8623.0000 8666.0000
8726.0000 8677.0000
8819.0000 8680.0000
8765.0000 8684.0000
8745.0000 8685.0000
8817.0000 8684.0000
8826.0000 8695.0000
8587.0000 8682.0000
8752.0000 8681.0000
8729.0000 8697.0000
8684.0000 8692.0000
8652.0000 8699.0000
8982.0000 8693.0000
8826.0000 8710.0000
8719.0000 8697.0000
8819.0000 8706.0000
8938.0000 8714.0000
8622.0000 8700.0000
8629.0000 8709.0000
8776.0000 8709.0000
8829.0000 8708.0000
8763.0000 8719.0000
8761.0000 8719.0000
8723.0000 8720.0000
8706.0000 8723.0000
8884.0000 8716.0000
8796.0000 8724.0000
8780.0000 8728.0000
8959.0000 8721.0000
8839.0000 8735.0000
8772.0000 8726.0000
8776.0000 8732.0000
8842.0000 8744.0000
8736.0000 8734.0000
8806.0000 8749.0000
8857.0000 8745.0000
8876.0000 8747.0000
8809.0000 8739.0000
8855.0000 8749.0000
8835.0000 8750.0000
8814.0000 8749.0000
8841.0000 8759.0000
8813.0000 8752.0000
8710.0000 8759.0000
8746.0000 8753.0000
8717.0000 8740.0000
8698.0000 8738.0000
8669.0000 8744.0000
8572.0000 8736.0000
8731.0000 8744.0000
8881.0000 8742.0000
8803.0000 8736.0000
8802.0000 8733.0000
8861.0000 8733.0000
8715.0000 8713.0000
8752.0000 8711.0000
8842.0000 8724.0000
8746.0000 8719.0000
8767.0000 8718.0000
8696.0000 8700.0000
8778.0000 8705.0000
8733.0000 8694.0000
8729.0000 8705.0000
8827.0000 8689.0000
8641.0000 8685.0000
8751.0000 8700.0000
8873.0000 8687.0000
8836.0000 8686.0000
8691.0000 8688.0000
8724.0000 8680.0000
8571.0000 8673.0000
8695.0000 8682.0000
8837.0000 8672.0000
8955.0000 8674.0000
8907.0000 8659.0000
8813.0000 8656.0000
8804.0000 8663.0000
8633.0000 8658.0000
8624.0000 8645.0000
8745.0000 8651.0000
8600.0000 8652.0000
8670.0000 8643.0000
8826.0000 8647.0000
8599.0000 8642.0000
8535.0000 8629.0000
8578.0000 8631.0000
8841.0000 8630.0000
8636.0000 8628.0000
8510.0000 8627.0000
8792.0000 8609.0000
8749.0000 8619.0000
8649.0000 8608.0000
8665.0000 8602.0000
8609.0000 8598.0000
8577.0000 8599.0000
8674.0000 8599.0000
8683.0000 8587.0000
8593.0000 8587.0000
8667.0000 8582.0000
8665.0000 8577.0000
8590.0000 8574.0000
8626.0000 8569.0000
8655.0000 8576.0000
8573.0000 8564.0000
8660.0000 8554.0000
8633.0000 8561.0000
8612.0000 8554.0000
8561.0000 8556.0000
8526.0000 8553.0000
8550.0000 8537.0000
8654.0000 8653.0000
8619.0000 8650.0000
8512.0000 8633.0000
8595.0000 8638.0000
8644.0000 8683.0000
8764.0000 8689.0000
8665.0000 8681.0000
8545.0000 8691.0000
8657.0000 8692.0000
8659.0000 8677.0000
8368.0000 8684.0000
8531.0000 8686.0000
8472.0000 8707.0000
8507.0000 8715.0000
8679.0000 8715.0000
8710.0000 8745.0000
8494.0000 8757.0000
8609.0000 8795.0000
8781.0000 8848.0000
8962.0000 8910.0000
9187.0000 9039.0000
9472.0000 9258.0000
10007.0000 9761.0000
10976.0000 10830.0000
12637.0000 12790.0000
15025.0000 15448.0000
17215.0000 17719.0000
18114.0000 17884.0000
17026.0000 16489.0000
15235.0000 15289.0000
14222.0000 14296.0000
13057.0000 12799.0000
11469.0000 11130.0000
10059.0000 9869.0000
9130.0000 9128.0000
8770.0000 8783.0000
8655.0000 8602.0000
8535.0000 8491.0000
8380.0000 8432.0000
8222.0000 8367.0000
8206.0000 8328.0000
8242.0000 8295.0000
8199.0000 8289.0000
8242.0000 8261.0000
8260.0000 8247.0000
8258.0000 8235.0000
8337.0000 8235.0000
8267.0000 8231.0000
8176.0000 8224.0000
8161.0000 8219.0000
8116.0000 8203.0000
8145.0000 8208.0000
8144.0000 8200.0000
8187.0000 8182.0000
8324.0000 8185.0000
8288.0000 8178.0000
8071.0000 8172.0000
8080.0000 8156.0000
8238.0000 8143.0000
8202.0000 8137.0000
8202.0000 8129.0000
8172.0000 8128.0000
8225.0000 8121.0000
8035.0000 8121.0000
8018.0000 8115.0000
7809.0000 8094.0000
7851.0000 8094.0000
8092.0000 8079.0000
8130.0000 8074.0000
8128.0000 8064.0000
7848.0000 8062.0000
7900.0000 8054.0000
7980.0000 8056.0000
8032.0000 8047.0000
7993.0000 8037.0000
7897.0000 8022.0000
7985.0000 8015.0000
7857.0000 8022.0000
7955.0000 8006.0000
7904.0000 8002.0000
7963.0000 8001.0000
7909.0000 7992.0000
8048.0000 7982.0000
7834.0000 7974.0000
7822.0000 7973.0000
7783.0000 7963.0000
7710.0000 7953.0000
7775.0000 7941.0000
7865.0000 7935.0000
7764.0000 7933.0000
7893.0000 7932.0000
7995.0000 7920.0000
7724.0000 7907.0000
7849.0000 7901.0000
7792.0000 7890.0000
7793.0000 7884.0000
7727.0000 7882.0000
7816.0000 7874.0000
7639.0000 7867.0000
7712.0000 7862.0000
7892.0000 7860.0000
7805.0000 7854.0000
7631.0000 7831.0000
7961.0000 7836.0000
7756.0000 7817.0000
7802.0000 7822.0000
7946.0000 7816.0000
7744.0000 7802.0000
7562.0000 7788.0000
7669.0000 7783.0000
7652.0000 7776.0000
7842.0000 7765.0000
7696.0000 7771.0000
7553.0000 7760.0000
7640.0000 7752.0000
7666.0000 7736.0000
7726.0000 7736.0000
7626.0000 7734.0000
7610.0000 7728.0000
7629.0000 7723.0000
7614.0000 7700.0000
7610.0000 7706.0000
7586.0000 7693.0000
7534.0000 7686.0000
7624.0000 7681.0000
7584.0000 7669.0000
7570.0000 7664.0000
7547.0000 7650.0000
7514.0000 7646.0000
7521.0000 7645.0000
7605.0000 7635.0000
7574.0000 7631.0000
7529.0000 7614.0000
7416.0000 7615.0000
7444.0000 7601.0000
7513.0000 7593.0000
7491.0000 7581.0000
7455.0000 7588.0000
7512.0000 7569.0000
7570.0000 7567.0000
7431.0000 7560.0000
7324.0000 7548.0000
7324.0000 7541.0000
7411.0000 7534.0000
7548.0000 7525.0000
7516.0000 7520.0000
7400.0000 7518.0000
7367.0000 7511.0000
7406.0000 7492.0000
7461.0000 7486.0000
7385.0000 7489.0000
7311.0000 7477.0000
7321.0000 7462.0000
7355.0000 7454.0000
7345.0000 7454.0000
7325.0000 7444.0000
7291.0000 7436.0000
7358.0000 7427.0000
7329.0000 7425.0000
7334.0000 7422.0000
7215.0000 7413.0000
7250.0000 7407.0000
7305.0000 7386.0000
7253.0000 7378.0000
7246.0000 7380.0000
7328.0000 7370.0000
7357.0000 7356.0000
7327.0000 7354.0000
7216.0000 7354.0000
7220.0000 7334.0000
7293.0000 7331.0000
7204.0000 7319.0000
7139.0000 7313.0000
7088.0000 7305.0000
7184.0000 7292.0000
7234.0000 7284.0000
7253.0000 7281.0000
7088.0000 7281.0000
7249.0000 7285.0000
7340.0000 7269.0000
7233.0000 7276.0000
7233.0000 7271.0000
7351.0000 7265.0000
7362.0000 7253.0000
7239.0000 7245.0000
7299.0000 7250.0000
7053.0000 7235.0000
7301.0000 7241.0000
7141.0000 7230.0000
7248.0000 7230.0000
7090.0000 7219.0000
7224.0000 7213.0000
7214.0000 7215.0000
7067.0000 7198.0000
7133.0000 7193.0000
7218.0000 7187.0000
7058.0000 7191.0000
7053.0000 7181.0000
7185.0000 7173.0000
7060.0000 7178.0000
6988.0000 7169.0000
7145.0000 7170.0000
7045.0000 7165.0000
7049.0000 7148.0000
7149.0000 7142.0000
7149.0000 7138.0000
7155.0000 7138.0000
6916.0000 7128.0000
6895.0000 7136.0000
7042.0000 7127.0000
7194.0000 7122.0000
7153.0000 7111.0000
7047.0000 7118.0000
7120.0000 7102.0000
7066.0000 7093.0000
6985.0000 7091.0000
7047.0000 7098.0000
7033.0000 7079.0000
6971.0000 7079.0000
6981.0000 7066.0000
7015.0000 7062.0000
6901.0000 7059.0000
6905.0000 7058.0000
7007.0000 7056.0000
6967.0000 7044.0000
6946.0000 7052.0000
6924.0000 7042.0000
6906.0000 7034.0000
7035.0000 7026.0000
7042.0000 7028.0000
6965.0000 7012.0000
6939.0000 7014.0000
6966.0000 7003.0000
7001.0000 6998.0000
6917.0000 6994.0000
6945.0000 7000.0000
7038.0000 6987.0000
7052.0000 6980.0000
6997.0000 6987.0000
6848.0000 6965.0000
6876.0000 6973.0000
6914.0000 6956.0000
6838.0000 6958.0000
6899.0000 6946.0000
6859.0000 6951.0000
6801.0000 6939.0000
6854.0000 6936.0000
6788.0000 6931.0000
6783.0000 6922.0000
6795.0000 6928.0000
6667.0000 6910.0000
6666.0000 6921.0000
6894.0000 6913.0000
7013.0000 6910.0000
6933.0000 6892.0000
6971.0000 6891.0000
6891.0000 6889.0000
6790.0000 6882.0000
6813.0000 6884.0000
6854.0000 6870.0000
6833.0000 6861.0000
7020.0000 6860.0000
6838.0000 6855.0000
6801.0000 6847.0000
6853.0000 6844.0000
6841.0000 6844.0000
6888.0000 6836.0000
6771.0000 6829.0000
6935.0000 6822.0000
6844.0000 6826.0000
6732.0000 6823.0000
6714.0000 6817.0000
6676.0000 6807.0000
6723.0000 6799.0000
6655.0000 6792.0000
6947.0000 6798.0000
6772.0000 6784.0000
6884.0000 6776.0000
6703.0000 6770.0000
6802.0000 6765.0000
6669.0000 6759.0000
6682.0000 6766.0000
6674.0000 6753.0000
6710.0000 6751.0000
6631.0000 6749.0000
6663.0000 6743.0000
6703.0000 6729.0000
6429.0000 6725.0000
6753.0000 6720.0000
6574.0000 6716.0000
6682.0000 6720.0000
6718.0000 6703.0000
6759.0000 6704.0000
6743.0000 6700.0000
6630.0000 6696.0000
6583.0000 6693.0000
6824.0000 6683.0000
6625.0000 6677.0000
6721.0000 6671.0000
6710.0000 6671.0000
6723.0000 6664.0000
6563.0000 6662.0000
6579.0000 6657.0000
6566.0000 6657.0000
6809.0000 6649.0000
6679.0000 6646.0000
6829.0000 6643.0000
6746.0000 6638.0000
6713.0000 6633.0000
6601.0000 6632.0000
6604.0000 6613.0000
6537.0000 6607.0000
6613.0000 6613.0000
6702.0000 6599.0000
6684.0000 6595.0000
6598.0000 6602.0000
6641.0000 6591.0000
6584.0000 6594.0000
6621.0000 6578.0000
6595.0000 6580.0000
6668.0000 6567.0000
6589.0000 6566.0000
6516.0000 6569.0000
6428.0000 6557.0000
6456.0000 6564.0000
6620.0000 6547.0000
6667.0000 6540.0000
6573.0000 6539.0000
6454.0000 6545.0000
6474.0000 6528.0000
6530.0000 6530.0000
6594.0000 6526.0000
6621.0000 6515.0000
6520.0000 6523.0000
6532.0000 6514.0000
6474.0000 6501.0000
6462.0000 6559.0000
6535.0000 6564.0000
6562.0000 6556.0000
6623.0000 6549.0000
6573.0000 6575.0000
6457.0000 6571.0000
6528.0000 6576.0000
6563.0000 6578.0000
6463.0000 6575.0000
6505.0000 6571.0000
6528.0000 6580.0000
6487.0000 6592.0000
6556.0000 6586.0000
6576.0000 6598.0000
6617.0000 6617.0000
6735.0000 6622.0000
6695.0000 6654.0000
6672.0000 6680.0000
6697.0000 6739.0000
6772.0000 6816.0000
7158.0000 6994.0000
7625.0000 7417.0000
8335.0000 8316.0000
9795.0000 9852.0000
11845.0000 11686.0000
12822.0000 12555.0000
11747.0000 11664.0000
9967.0000 10394.0000
9423.0000 9832.0000
9647.0000 9866.0000
9434.0000 9521.0000
8359.0000 8562.0000
7356.0000 7608.0000
6797.0000 7011.0000
6472.0000 6705.0000
6524.0000 6552.0000
6506.0000 6478.0000
6463.0000 6436.0000
6584.0000 6410.0000
6453.0000 6380.0000
6255.0000 6351.0000
6225.0000 6336.0000
6300.0000 6320.0000
6389.0000 6319.0000
6559.0000 6304.0000
6495.0000 6297.0000
6328.0000 6299.0000
6372.0000 6290.0000
6322.0000 6284.0000
6394.0000 6272.0000
6405.0000 6278.0000
6389.0000 6273.0000
6263.0000 6270.0000
6214.0000 6264.0000
6326.0000 6260.0000
6210.0000 6251.0000
6327.0000 6253.0000
6490.0000 6236.0000
6349.0000 6236.0000
6229.0000 6238.0000
6264.0000 6237.0000
6406.0000 6233.0000
6356.0000 6227.0000
6425.0000 6213.0000
6414.0000 6215.0000
6338.0000 6215.0000
6229.0000 6214.0000
6260.0000 6209.0000
6239.0000 6200.0000
6155.0000 6192.0000
6217.0000 6203.0000
6306.0000 6193.0000
6303.0000 6186.0000
6165.0000 6186.0000
6137.0000 6185.0000
6313.0000 6169.0000
6296.0000 6180.0000
6335.0000 6167.0000
6249.0000 6157.0000
6210.0000 6163.0000
6223.0000 6156.0000
6200.0000 6161.0000
6236.0000 6146.0000
6354.0000 6149.0000
6227.0000 6146.0000
6096.0000 6136.0000
6152.0000 6141.0000
6208.0000 6131.0000
6150.0000 6131.0000
6174.0000 6121.0000
6181.0000 6124.0000
6177.0000 6116.0000
6113.0000 6112.0000
6180.0000 6112.0000
6169.0000 6113.0000
6152.0000 6108.0000
6165.0000 6103.0000
6163.0000 6097.0000
6209.0000 6093.0000
6233.0000 6096.0000
6192.0000 6082.0000
6143.0000 6077.0000
6167.0000 6082.0000
6067.0000 6072.0000
5990.0000 6069.0000
6101.0000 6067.0000
6175.0000 6060.0000
6147.0000 6060.0000
6117.0000 6058.0000
6108.0000 6046.0000
6071.0000 6052.0000
6010.0000 6049.0000
5993.0000 6044.0000
6082.0000 6035.0000
6104.0000 6037.0000
6056.0000 6033.0000
6044.0000 6034.0000
6073.0000 6028.0000
6139.0000 6012.0000
6084.0000 6016.0000
6018.0000 6008.0000
6097.0000 6006.0000
6030.0000 5998.0000
5916.0000 6003.0000
5998.0000 6006.0000
6052.0000 5994.0000
5900.0000 5994.0000
6094.0000 5981.0000
6142.0000 5978.0000
6045.0000 5988.0000
5907.0000 5969.0000
5862.0000 5967.0000
5953.0000 5963.0000
6007.0000 5967.0000
6029.0000 5969.0000
6041.0000 5963.0000
6103.0000 5958.0000
5987.0000 5947.0000
5938.0000 5942.0000
5981.0000 5950.0000
5951.0000 5947.0000
5793.0000 5938.0000
5794.0000 5935.0000
6025.0000 5931.0000
6123.0000 5934.0000
5986.0000 5917.0000
5933.0000 5923.0000
5986.0000 5910.0000
5923.0000 5905.0000
5928.0000 5907.0000
5973.0000 5902.0000
5932.0000 5903.0000
5861.0000 5890.0000
5674.0000 5898.0000
5884.0000 5892.0000
6127.0000 5886.0000
5990.0000 5885.0000
6183.0000 5890.0000
5957.0000 5879.0000
5780.0000 5884.0000
6005.0000 5877.0000
6022.0000 5876.0000
6184.0000 5880.0000
6177.0000 5871.0000
5951.0000 5877.0000
5810.0000 5871.0000
5915.0000 5867.0000
5948.0000 5867.0000
5962.0000 5863.0000
5941.0000 5856.0000
6009.0000 5859.0000
6037.0000 5853.0000
5903.0000 5857.0000
5942.0000 5847.0000
5873.0000 5853.0000
5886.0000 5848.0000
5933.0000 5846.0000
5853.0000 5842.0000
5883.0000 5838.0000
5909.0000 5831.0000
5878.0000 5829.0000
5803.0000 5829.0000
5924.0000 5825.0000
5848.0000 5824.0000
5884.0000 5825.0000
5965.0000 5828.0000
5888.0000 5825.0000
5980.0000 5822.0000
5907.0000 5809.0000
5896.0000 5811.0000
5955.0000 5807.0000
5816.0000 5803.0000
5853.0000 5808.0000
5909.0000 5800.0000
6005.0000 5802.0000
5925.0000 5797.0000
5931.0000 5801.0000
5978.0000 5799.0000
5981.0000 5800.0000
6038.0000 5792.0000
6037.0000 5788.0000
5946.0000 5789.0000
5833.0000 5780.0000
5855.0000 5785.0000
5831.0000 5774.0000
5785.0000 5772.0000
5842.0000 5780.0000
5898.0000 5773.0000
5937.0000 5764.0000
5910.0000 5764.0000
5809.0000 5769.0000
5777.0000 5765.0000
5843.0000 5768.0000
5851.0000 5758.0000
5814.0000 5765.0000
5756.0000 5749.0000
5816.0000 5748.0000
5892.0000 5746.0000
5855.0000 5755.0000
5806.0000 5750.0000
5859.0000 5756.0000
5889.0000 5754.0000
5801.0000 5742.0000
5885.0000 5748.0000
5824.0000 5747.0000
5735.0000 5750.0000
5749.0000 5746.0000
5823.0000 5744.0000
5812.0000 5747.0000
5912.0000 5738.0000
5858.0000 5744.0000
5831.0000 5731.0000
5814.0000 5745.0000
5797.0000 5741.0000
5704.0000 5739.0000
5948.0000 5737.0000
5871.0000 5736.0000
5771.0000 5726.0000
5792.0000 5732.0000
5747.0000 5730.0000
5899.0000 5730.0000
5751.0000 5733.0000
5828.0000 5732.0000
5689.0000 5730.0000
5750.0000 5727.0000
5748.0000 5725.0000
5754.0000 5714.0000
5781.0000 5726.0000
5757.0000 5716.0000
5856.0000 5723.0000
5729.0000 5717.0000
5747.0000 5718.0000
5672.0000 5718.0000
5670.0000 5714.0000
5791.0000 5714.0000
5730.0000 5713.0000
5815.0000 5705.0000
5787.0000 5707.0000
5612.0000 5712.0000
5799.0000 5702.0000
5740.0000 5701.0000
5845.0000 5699.0000
5652.0000 5702.0000
5837.0000 5704.0000
5749.0000 5705.0000
5790.0000 5701.0000
5883.0000 5700.0000
5948.0000 5704.0000
5840.0000 5702.0000
5815.0000 5691.0000
5640.0000 5697.0000
5741.0000 5691.0000
5651.0000 5691.0000
5702.0000 5696.0000
5700.0000 5693.0000
5785.0000 5684.0000
5749.0000 5692.0000
5754.0000 5681.0000
5783.0000 5695.0000
5749.0000 5689.0000
5859.0000 5692.0000
5705.0000 5689.0000
5699.0000 5682.0000
5730.0000 5682.0000
5832.0000 5676.0000
5807.0000 5681.0000
5645.0000 5683.0000
5718.0000 5680.0000
5736.0000 5682.0000
5613.0000 5678.0000
5626.0000 5675.0000
5671.0000 5683.0000
5655.0000 5681.0000
5732.0000 5683.0000
5779.0000 5683.0000
5731.0000 5680.0000
5688.0000 5681.0000
5772.0000 5678.0000
5812.0000 5688.0000
5743.0000 5679.0000
5678.0000 5675.0000
5686.0000 5683.0000
5707.0000 5690.0000
5711.0000 5680.0000
5754.0000 5678.0000
5766.0000 5692.0000
5747.0000 5692.0000
5685.0000 5695.0000
5681.0000 5697.0000
5789.0000 5710.0000
5817.0000 5727.0000
5885.0000 5780.0000
6080.0000 5886.0000
6301.0000 6125.0000
6541.0000 6484.0000
6759.0000 6809.0000
6750.0000 6759.0000
6452.0000 6445.0000
6221.0000 6180.0000
6151.0000 6139.0000
6220.0000 6225.0000
6170.0000 6276.0000
6057.0000 6126.0000
6007.0000 5921.0000
5819.0000 5776.0000
5765.0000 5710.0000
5858.0000 5681.0000
5781.0000 5664.0000
5626.0000 5650.0000
5745.0000 5642.0000
5695.0000 5631.0000
5697.0000 5629.0000
5714.0000 5628.0000
5605.0000 5620.0000
5692.0000 5629.0000
5572.0000 5629.0000
5681.0000 5615.0000
5759.0000 5615.0000
5792.0000 5616.0000
5761.0000 5615.0000
5854.0000 5614.0000
5793.0000 5612.0000
5725.0000 5605.0000
5566.0000 5609.0000
5665.0000 5604.0000
5552.0000 5611.0000
5734.0000 5614.0000
5824.0000 5612.0000
5742.0000 5607.0000
5691.0000 5617.0000
5698.0000 5610.0000
5599.0000 5616.0000
5638.0000 5609.0000
5632.0000 5619.0000
5753.0000 5619.0000
5707.0000 5620.0000
5772.0000 5608.0000
5732.0000 5615.0000
5734.0000 5617.0000
5736.0000 5620.0000
5701.0000 5615.0000
5706.0000 5621.0000
5737.0000 5622.0000
5819.0000 5612.0000
5732.0000 5618.0000
5687.0000 5618.0000
5581.0000 5618.0000
5727.0000 5614.0000
5541.0000 5623.0000
5707.0000 5624.0000
5689.0000 5622.0000
5564.0000 5617.0000
5526.0000 5625.0000
5694.0000 5612.0000
5709.0000 5612.0000
5677.0000 5626.0000
5789.0000 5617.0000
5754.0000 5613.0000
5664.0000 5614.0000
5658.0000 5624.0000
5754.0000 5614.0000
5515.0000 5617.0000
5629.0000 5626.0000
5585.0000 5627.0000
5552.0000 5624.0000
5562.0000 5619.0000
5613.0000 5626.0000
5630.0000 5628.0000
5565.0000 5624.0000
5577.0000 5621.0000
5578.0000 5622.0000
5586.0000 5630.0000
5665.0000 5620.0000
5659.0000 5629.0000
5613.0000 5629.0000
5696.0000 5622.0000
5716.0000 5626.0000
5624.0000 5625.0000
5554.0000 5630.0000
5619.0000 5621.0000
5695.0000 5622.0000
5661.0000 5634.0000
5617.0000 5635.0000
5668.0000 5626.0000
5674.0000 5632.0000
5602.0000 5636.0000
5565.0000 5629.0000
5585.0000 5634.0000
5662.0000 5636.0000
5619.0000 5623.0000
5633.0000 5622.0000
5678.0000 5622.0000
5616.0000 5636.0000
5683.0000 5628.0000
5654.0000 5630.0000
5619.0000 5625.0000
5675.0000 5636.0000
5685.0000 5631.0000
5749.0000 5634.0000
5749.0000 5635.0000
5585.0000 5637.0000
5571.0000 5638.0000
5677.0000 5639.0000
5581.0000 5634.0000
5544.0000 5627.0000
5608.0000 5631.0000
5559.0000 5626.0000
5587.0000 5640.0000
5575.0000 5628.0000
5658.0000 5636.0000
5666.0000 5630.0000
5519.0000 5633.0000
5652.0000 5631.0000
5501.0000 5629.0000
5616.0000 5641.0000
5689.0000 5639.0000
5617.0000 5643.0000
5515.0000 5630.0000
5681.0000 5632.0000
5811.0000 5641.0000
5657.0000 5638.0000
5622.0000 5633.0000
5597.0000 5638.0000
5701.0000 5637.0000
5634.0000 5630.0000
5569.0000 5641.0000
5580.0000 5636.0000
5795.0000 5641.0000
5459.0000 5635.0000
5568.0000 5640.0000
5425.0000 5630.0000
5668.0000 5635.0000
5648.0000 5630.0000
5623.0000 5635.0000
5654.0000 5635.0000
5678.0000 5629.0000
5464.0000 5639.0000
5692.0000 5641.0000
5737.0000 5641.0000
5594.0000 5633.0000
5607.0000 5630.0000
5504.0000 5631.0000
5557.0000 5639.0000
5612.0000 5634.0000
5541.0000 5637.0000
5604.0000 5625.0000
5530.0000 5626.0000
5604.0000 5624.0000
5663.0000 5623.0000
5638.0000 5627.0000
5587.0000 5635.0000
5582.0000 5630.0000
5661.0000 5634.0000
5764.0000 5630.0000
5622.0000 5624.0000
5694.0000 5621.0000
5737.0000 5633.0000
5645.0000 5631.0000
5708.0000 5619.0000
5630.0000 5631.0000
5571.0000 5630.0000
5486.0000 5619.0000
5556.0000 5629.0000
5590.0000 5617.0000
5599.0000 5626.0000
5605.0000 5617.0000
5630.0000 5626.0000
5592.0000 5618.0000
5634.0000 5615.0000
5672.0000 5622.0000
5628.0000 5623.0000
5516.0000 5615.0000
5519.0000 5618.0000
5515.0000 5614.0000
5567.0000 5620.0000
5607.0000 5614.0000
5658.0000 5620.0000
5672.0000 5618.0000
5576.0000 5612.0000
5515.0000 5610.0000
5540.0000 5619.0000
5540.0000 5619.0000
5563.0000 5611.0000
5685.0000 5613.0000
5695.0000 5608.0000
5590.0000 5607.0000
5563.0000 5610.0000
5587.0000 5617.0000
5601.0000 5616.0000
5646.0000 5615.0000
5724.0000 5603.0000
5680.0000 5604.0000
5588.0000 5601.0000
5563.0000 5606.0000
5585.0000 5612.0000
5691.0000 5613.0000
5613.0000 5609.0000
5498.0000 5613.0000
5598.0000 5608.0000
5664.0000 5598.0000
5644.0000 5607.0000
5607.0000 5599.0000
5671.0000 5603.0000
5601.0000 5607.0000
5639.0000 5600.0000
5556.0000 5606.0000
5503.0000 5597.0000
5545.0000 5595.0000
5729.0000 5598.0000
5644.0000 5603.0000
5716.0000 5599.0000
5659.0000 5602.0000
5768.0000 5603.0000
5607.0000 5593.0000
5521.0000 5596.0000
5514.0000 5589.0000
5550.0000 5595.0000
5633.0000 5588.0000
5693.0000 5587.0000
5614.0000 5598.0000
5580.0000 5594.0000
5499.0000 5587.0000
5514.0000 5588.0000
5592.0000 5591.0000
5574.0000 5588.0000
5652.0000 5590.0000
5541.0000 5599.0000
5722.0000 5600.0000
5610.0000 5593.0000
5650.0000 5588.0000
5624.0000 5592.0000
5564.0000 5592.0000
5452.0000 5599.0000
5582.0000 5595.0000
5642.0000 5595.0000
5531.0000 5589.0000
5572.0000 5600.0000
5668.0000 5592.0000
5602.0000 5600.0000
5758.0000 5590.0000
5476.0000 5593.0000
5487.0000 5589.0000
5690.0000 5598.0000
5669.0000 5593.0000
5635.0000 5589.0000
5591.0000 5590.0000
5660.0000 5599.0000
5558.0000 5588.0000
5532.0000 5592.0000
5509.0000 5598.0000
5555.0000 5600.0000
5629.0000 5600.0000
5556.0000 5603.0000
5723.0000 5591.0000
5666.0000 5597.0000
5674.0000 5611.0000
5625.0000 5623.0000
5650.0000 5654.0000
5725.0000 5714.0000
5801.0000 5772.0000
5808.0000 5775.0000
5674.0000 5718.0000
5595.0000 5661.0000
5522.0000 5644.0000
5783.0000 5661.0000
5752.0000 5687.0000
5710.0000 5684.0000
5587.0000 5669.0000
5567.0000 5631.0000
5675.0000 5613.0000
5652.0000 5595.0000
5537.0000 5596.0000
5694.0000 5586.0000
5611.0000 5592.0000
5597.0000 5592.0000
5644.0000 5593.0000
5646.0000 5594.0000
5652.0000 5585.0000
5561.0000 5583.0000
5598.0000 5590.0000
5628.0000 5590.0000
5653.0000 5585.0000
5695.0000 5582.0000
5719.0000 5590.0000
5684.0000 5585.0000
5542.0000 5593.0000
5473.0000 5583.0000
5478.0000 5588.0000
5574.0000 5578.0000
5754.0000 5577.0000
5709.0000 5578.0000
5617.0000 5591.0000
5603.0000 5577.0000
5579.0000 5583.0000
5617.0000 5591.0000
5601.0000 5590.0000
5624.0000 5583.0000
5624.0000 5583.0000
5593.0000 5582.0000
5678.0000 5577.0000
5766.0000 5589.0000
5692.0000 5589.0000
5564.0000 5581.0000
5663.0000 5574.0000
5591.0000 5577.0000
5522.0000 5583.0000
5609.0000 5580.0000
5648.0000 5574.0000
5701.0000 5582.0000
5628.0000 5584.0000
5562.0000 5578.0000
5529.0000 5575.0000
5595.0000 5581.0000
5513.0000 5587.0000
5511.0000 5585.0000
5528.0000 5572.0000
5595.0000 5579.0000
5612.0000 5581.0000
5604.0000 5573.0000
5633.0000 5572.0000
5535.0000 5579.0000
5634.0000 5573.0000
5548.0000 5577.0000
5642.0000 5579.0000
5653.0000 5575.0000
5616.0000 5583.0000
5687.0000 5578.0000
5653.0000 5574.0000
5566.0000 5577.0000
5489.0000 5574.0000
5589.0000 5569.0000
5412.0000 5570.0000
5500.0000 5569.0000
5743.0000 5572.0000
5633.0000 5568.0000
5581.0000 5575.0000
5576.0000 5570.0000
5567.0000 5576.0000
5524.0000 5578.0000
5695.0000 5568.0000
5580.0000 5573.0000
5704.0000 5576.0000
5532.0000 5569.0000
5639.0000 5571.0000
5658.0000 5575.0000
5600.0000 5577.0000
5479.0000 5573.0000
5636.0000 5566.0000
5629.0000 5574.0000
5637.0000 5567.0000
5617.0000 5577.0000
5498.0000 5575.0000
5700.0000 5568.0000
5618.0000 5561.0000
5509.0000 5571.0000
5530.0000 5563.0000
5596.0000 5569.0000
5377.0000 5571.0000
5679.0000 5561.0000
5650.0000 5562.0000
5492.0000 5568.0000
5674.0000 5571.0000
5608.0000 5564.0000
5551.0000 5567.0000
5586.0000 5572.0000
5500.0000 5560.0000
5541.0000 5572.0000
5600.0000 5571.0000
5667.0000 5563.0000
5621.0000 5560.0000
5626.0000 5565.0000
5674.0000 5568.0000
5698.0000 5562.0000
5710.0000 5559.0000
5498.0000 5570.0000
5527.0000 5570.0000
5609.0000 5562.0000
5614.0000 5566.0000
5664.0000 5556.0000
5718.0000 5565.0000
5613.0000 5564.0000
5588.0000 5555.0000
5617.0000 5569.0000
5667.0000 5559.0000
5629.0000 5565.0000
5545.0000 5556.0000
5534.0000 5560.0000
5601.0000 5566.0000
5666.0000 5556.0000
5642.0000 5562.0000
5616.0000 5565.0000
5630.0000 5564.0000
5663.0000 5552.0000
5665.0000 5552.0000
5612.0000 5559.0000
5630.0000 5562.0000
5659.0000 5561.0000
5596.0000 5558.0000
5535.0000 5557.0000
5562.0000 5554.0000
5592.0000 5553.0000
5576.0000 5552.0000
5677.0000 5563.0000
5592.0000 5552.0000
5627.0000 5557.0000
5565.0000 5555.0000
5655.0000 5554.0000
5706.0000 5560.0000
5693.0000 5547.0000
5643.0000 5556.0000
5653.0000 5551.0000
5645.0000 5558.0000
5542.0000 5560.0000
5469.0000 5546.0000
5530.0000 5547.0000
5488.0000 5549.0000
5475.0000 5551.0000
5429.0000 5548.0000
5548.0000 5548.0000
5582.0000 5552.0000
5627.0000 5551.0000
5597.0000 5551.0000
5609.0000 5547.0000
5575.0000 5543.0000
5696.0000 5544.0000
5650.0000 5542.0000
5638.0000 5545.0000
5535.0000 5547.0000
5580.0000 5547.0000
5535.0000 5546.0000
5460.0000 5545.0000
5571.0000 5552.0000
5571.0000 5551.0000
5524.0000 5549.0000
5628.0000 5547.0000
5561.0000 5540.0000
5422.0000 5548.0000
5540.0000 5548.0000
5609.0000 5541.0000
5584.0000 5546.0000
5709.0000 5536.0000
5400.0000 5539.0000
5518.0000 5540.0000
5611.0000 5541.0000
5573.0000 5533.0000
5457.0000 5535.0000
5497.0000 5545.0000
5530.0000 5533.0000
5526.0000 5544.0000
5589.0000 5532.0000
5603.0000 5530.0000
5563.0000 5535.0000
5712.0000 5533.0000
5504.0000 5534.0000
5477.0000 5536.0000
5653.0000 5533.0000
5540.0000 5539.0000
5483.0000 5542.0000
5530.0000 5530.0000
5419.0000 5536.0000
5583.0000 5537.0000
5616.0000 5539.0000
5566.0000 5534.0000
5501.0000 5527.0000
5599.0000 5535.0000
5675.0000 5536.0000
5678.0000 5524.0000
5501.0000 5525.0000
5482.0000 5536.0000
5457.0000 5524.0000
5439.0000 5534.0000
5587.0000 5534.0000
5477.0000 5528.0000
5444.0000 5525.0000
5522.0000 5528.0000
5524.0000 5530.0000
5545.0000 5521.0000
5570.0000 5530.0000
5565.0000 5525.0000
5570.0000 5529.0000
5597.0000 5525.0000
5522.0000 5525.0000
5532.0000 5520.0000
5558.0000 5515.0000
5590.0000 5516.0000
5482.0000 5527.0000
5480.0000 5524.0000
5498.0000 5527.0000
5413.0000 5516.0000
5482.0000 5526.0000
5595.0000 5519.0000
5639.0000 5518.0000
5647.0000 5526.0000
5635.0000 5514.0000
5638.0000 5516.0000
5592.0000 5514.0000
5462.0000 5518.0000
5456.0000 5511.0000
5541.0000 5523.0000
5565.0000 5516.0000
5573.0000 5510.0000
5548.0000 5515.0000
5576.0000 5515.0000
5616.0000 5530.0000
5635.0000 5535.0000
5510.0000 5570.0000
5485.0000 5581.0000
5484.0000 5573.0000
5595.0000 5551.0000
5630.0000 5536.0000
5586.0000 5528.0000
5486.0000 5519.0000
5456.0000 5529.0000
5506.0000 5545.0000
5634.0000 5537.0000
5568.0000 5531.0000
5603.0000 5509.0000
5502.0000 5505.0000
5570.0000 5512.0000
5491.0000 5506.0000
5501.0000 5499.0000
5427.0000 5499.0000
5442.0000 5498.0000
5417.0000 5501.0000
5393.0000 5506.0000
5587.0000 5507.0000
5542.0000 5507.0000
5520.0000 5499.0000
5582.0000 5499.0000
5656.0000 5498.0000
5478.0000 5498.0000
5487.0000 5492.0000
5594.0000 5494.0000
5467.0000 5500.0000
5556.0000 5501.0000
5438.0000 5500.0000
5505.0000 5493.0000
5478.0000 5495.0000
5569.0000 5497.0000
5623.0000 5491.0000
5509.0000 5495.0000
5539.0000 5496.0000
5590.0000 5486.0000
5562.0000 5488.0000
5372.0000 5490.0000
5655.0000 5490.0000
5432.0000 5490.0000
5598.0000 5492.0000
5423.0000 5495.0000
5504.0000 5487.0000
5538.0000 5492.0000
5494.0000 5492.0000
5434.0000 5491.0000
5485.0000 5482.0000
5618.0000 5481.0000
5533.0000 5485.0000
5616.0000 5492.0000
5596.0000 5487.0000
5533.0000 5483.0000
5486.0000 5480.0000
5433.0000 5486.0000
5526.0000 5490.0000
5405.0000 5487.0000
5607.0000 5481.0000
5574.0000 5477.0000
5478.0000 5486.0000
5541.0000 5489.0000
5493.0000 5485.0000
5478.0000 5485.0000
5473.0000 5479.0000
5492.0000 5483.0000
5517.0000 5478.0000
5497.0000 5487.0000
5509.0000 5483.0000
5674.0000 5484.0000
5646.0000 5485.0000
5521.0000 5480.0000
5520.0000 5479.0000
5559.0000 5472.0000
5680.0000 5473.0000
5557.0000 5484.0000
5661.0000 5484.0000
5636.0000 5473.0000
5521.0000 5478.0000
5540.0000 5482.0000
5532.0000 5473.0000
5506.0000 5475.0000
5564.0000 5473.0000
5556.0000 5480.0000
5468.0000 5480.0000
5465.0000 5477.0000
5509.0000 5476.0000
5506.0000 5472.0000
5485.0000 5466.0000
5537.0000 5473.0000
5602.0000 5478.0000
5628.0000 5474.0000
5634.0000 5465.0000
5594.0000 5469.0000
5542.0000 5477.0000
5544.0000 5464.0000
5583.0000 5472.0000
5468.0000 5476.0000
5430.0000 5466.0000
5605.0000 5463.0000
5614.0000 5471.0000
5568.0000 5470.0000
5563.0000 5464.0000
5554.0000 5470.0000
5547.0000 5462.0000
5527.0000 5471.0000
5420.0000 5468.0000
5509.0000 5468.0000
5477.0000 5465.0000
5467.0000 5470.0000
5530.0000 5458.0000
5394.0000 5468.0000
5418.0000 5463.0000
5457.0000 5456.0000
5531.0000 5456.0000
5498.0000 5466.0000
5464.0000 5462.0000
5510.0000 5462.0000
5539.0000 5461.0000
5575.0000 5452.0000
5550.0000 5456.0000
5473.0000 5453.0000
5506.0000 5456.0000
5550.0000 5456.0000
5515.0000 5450.0000
5503.0000 5452.0000
5593.0000 5452.0000
5414.0000 5450.0000
5481.0000 5458.0000
5588.0000 5445.0000
5485.0000 5446.0000
5439.0000 5458.0000
5488.0000 5448.0000
5478.0000 5452.0000
5390.0000 5451.0000
5605.0000 5444.0000
5405.0000 5451.0000
5379.0000 5455.0000
5578.0000 5446.0000
5384.0000 5444.0000
5449.0000 5450.0000
5462.0000 5448.0000
5465.0000 5450.0000
5473.0000 5442.0000
5625.0000 5445.0000
5483.0000 5451.0000
5561.0000 5439.0000
5459.0000 5441.0000
5544.0000 5435.0000
5355.0000 5438.0000
5488.0000 5437.0000
5620.0000 5434.0000
5463.0000 5442.0000
5571.0000 5445.0000
5494.0000 5442.0000
5517.0000 5435.0000
5487.0000 5433.0000
5595.0000 5437.0000
5412.0000 5431.0000
5511.0000 5440.0000
5546.0000 5431.0000
5611.0000 5435.0000
5610.0000 5433.0000
5524.0000 5437.0000
5492.0000 5433.0000
5577.0000 5428.0000
5451.0000 5435.0000
5444.0000 5428.0000
5588.0000 5423.0000
5628.0000 5432.0000
5505.0000 5428.0000
5539.0000 5432.0000
5475.0000 5426.0000
5311.0000 5424.0000
5397.0000 5421.0000
5424.0000 5432.0000
5468.0000 5432.0000
5434.0000 5426.0000
5269.0000 5421.0000
5328.0000 5422.0000
5482.0000 5428.0000
5571.0000 5427.0000
5590.0000 5415.0000
5478.0000 5423.0000
5495.0000 5424.0000
5566.0000 5419.0000
5552.0000 5420.0000
5524.0000 5421.0000
5386.0000 5414.0000
5293.0000 5409.0000
5415.0000 5413.0000
5486.0000 5409.0000
5451.0000 5418.0000
5461.0000 5413.0000
5489.0000 5410.0000
5452.0000 5417.0000
5391.0000 5414.0000
5418.0000 5411.0000
5413.0000 5405.0000
5466.0000 5414.0000
5465.0000 5413.0000
5483.0000 5415.0000
5455.0000 5401.0000
5399.0000 5403.0000
5392.0000 5410.0000
5448.0000 5407.0000
5425.0000 5397.0000
5468.0000 5410.0000
5515.0000 5397.0000
5472.0000 5398.0000
5337.0000 5394.0000
5361.0000 5403.0000
5503.0000 5396.0000
5524.0000 5402.0000
5506.0000 5399.0000
5405.0000 5401.0000
5401.0000 5397.0000
5347.0000 5400.0000
5506.0000 5396.0000
5384.0000 5391.0000
5473.0000 5392.0000
5464.0000 5397.0000
5355.0000 5390.0000
5442.0000 5388.0000
5513.0000 5399.0000
5484.0000 5386.0000
5307.0000 5399.0000
5473.0000 5388.0000
5471.0000 5386.0000
5398.0000 5388.0000
5291.0000 5400.0000
5576.0000 5391.0000
5584.0000 5402.0000
5614.0000 5412.0000
5606.0000 5435.0000
5453.0000 5510.0000
5641.0000 5580.0000
5652.0000 5578.0000
5524.0000 5508.0000
5425.0000 5431.0000
5587.0000 5414.0000
5560.0000 5394.0000
5616.0000 5415.0000
5429.0000 5436.0000
5478.0000 5477.0000
5565.0000 5477.0000
5453.0000 5445.0000
5421.0000 5406.0000
5482.0000 5390.0000
5523.0000 5380.0000
5406.0000 5379.0000
5349.0000 5377.0000
5304.0000 5374.0000
5412.0000 5364.0000
5721.0000 5373.0000
5438.0000 5372.0000
5424.0000 5372.0000
5378.0000 5368.0000
5516.0000 5358.0000
5427.0000 5357.0000
5360.0000 5364.0000
5372.0000 5360.0000
5433.0000 5361.0000
5486.0000 5354.0000
5463.0000 5360.0000
5471.0000 5352.0000
5475.0000 5356.0000
5600.0000 5361.0000
5472.0000 5351.0000
5447.0000 5354.0000
5330.0000 5353.0000
5235.0000 5344.0000
5397.0000 5345.0000
5417.0000 5349.0000
5447.0000 5349.0000
5399.0000 5345.0000
5340.0000 5343.0000
5353.0000 5341.0000
5384.0000 5341.0000
5381.0000 5338.0000
5341.0000 5341.0000
5403.0000 5344.0000
5457.0000 5338.0000
5348.0000 5345.0000
5322.0000 5333.0000
5397.0000 5334.0000
5334.0000 5343.0000
5293.0000 5330.0000
5369.0000 5332.0000
5463.0000 5337.0000
5530.0000 5329.0000
5468.0000 5341.0000
5426.0000 5327.0000
5479.0000 5335.0000
5413.0000 5327.0000
5304.0000 5335.0000
5357.0000 5329.0000
5471.0000 5324.0000
5403.0000 5329.0000
5332.0000 5330.0000
5418.0000 5327.0000
5351.0000 5318.0000
5323.0000 5318.0000
5422.0000 5328.0000
5473.0000 5319.0000
5453.0000 5328.0000
5445.0000 5320.0000
5268.0000 5317.0000
5229.0000 5321.0000
5335.0000 5324.0000
5336.0000 5324.0000
5337.0000 5309.0000
5318.0000 5319.0000
5466.0000 5319.0000
5364.0000 5319.0000
5263.0000 5319.0000
5243.0000 5312.0000
5239.0000 5307.0000
5356.0000 5306.0000
5278.0000 5314.0000
5248.0000 5312.0000
5250.0000 5299.0000
5418.0000 5306.0000
5272.0000 5305.0000
5188.0000 5307.0000
5382.0000 5296.0000
5430.0000 5299.0000
5330.0000 5300.0000
5269.0000 5296.0000
5361.0000 5300.0000
5275.0000 5300.0000
5462.0000 5296.0000
5323.0000 5288.0000
5254.0000 5291.0000
5358.0000 5292.0000
5470.0000 5285.0000
5279.0000 5284.0000
5363.0000 5295.0000
5179.0000 5284.0000
5392.0000 5292.0000
5426.0000 5281.0000
5365.0000 5293.0000
5393.0000 5289.0000
5335.0000 5289.0000
5256.0000 5282.0000
5171.0000 5282.0000
5314.0000 5280.0000
5349.0000 5284.0000
5334.0000 5283.0000
5345.0000 5278.0000
5343.0000 5275.0000
5218.0000 5280.0000
5248.0000 5281.0000
5312.0000 5272.0000
5302.0000 5275.0000
5531.0000 5267.0000
5345.0000 5271.0000
5366.0000 5262.0000
5372.0000 5267.0000
5351.0000 5260.0000
5322.0000 5259.0000
5343.0000 5264.0000
5226.0000 5263.0000
5241.0000 5261.0000
5204.0000 5267.0000
5142.0000 5261.0000
5284.0000 5258.0000
5390.0000 5260.0000
5214.0000 5259.0000
5255.0000 5255.0000
5304.0000 5259.0000
5192.0000 5248.0000
5237.0000 5248.0000
5233.0000 5258.0000
5219.0000 5256.0000
5207.0000 5242.0000
5126.0000 5246.0000
5229.0000 5248.0000
5197.0000 5244.0000
5230.0000 5247.0000
5286.0000 5243.0000
5283.0000 5239.0000
5285.0000 5240.0000
5294.0000 5234.0000
5270.0000 5238.0000
5268.0000 5234.0000
5274.0000 5239.0000
5296.0000 5231.0000
5348.0000 5238.0000
5320.0000 5239.0000
5224.0000 5228.0000
5214.0000 5231.0000
5258.0000 5231.0000
5257.0000 5229.0000
5298.0000 5225.0000
5265.0000 5220.0000
5196.0000 5222.0000
5220.0000 5230.0000
5174.0000 5226.0000
5190.0000 5228.0000
5235.0000 5214.0000
5247.0000 5224.0000
5325.0000 5214.0000
5295.0000 5212.0000
5181.0000 5212.0000
5182.0000 5212.0000
5351.0000 5206.0000
5354.0000 5208.0000
5251.0000 5206.0000
5181.0000 5206.0000
5260.0000 5212.0000
5329.0000 5207.0000
5275.0000 5210.0000
5224.0000 5201.0000
5250.0000 5198.0000
5270.0000 5202.0000
5297.0000 5198.0000
5173.0000 5203.0000
5245.0000 5202.0000
5159.0000 5201.0000
5181.0000 5193.0000
5279.0000 5189.0000
5159.0000 5197.0000
5136.0000 5187.0000
5114.0000 5193.0000
5191.0000 5197.0000
5244.0000 5190.0000
5209.0000 5183.0000
5214.0000 5187.0000
5213.0000 5185.0000
5306.0000 5190.0000
5295.0000 5178.0000
5204.0000 5187.0000
5137.0000 5176.0000
5262.0000 5185.0000
5351.0000 5170.0000
5265.0000 5170.0000
5101.0000 5178.0000
5231.0000 5178.0000
5116.0000 5176.0000
5207.0000 5165.0000
5197.0000 5169.0000
5318.0000 5172.0000
5157.0000 5168.0000
5209.0000 5161.0000
5124.0000 5164.0000
5087.0000 5169.0000
5228.0000 5168.0000
5172.0000 5170.0000
5166.0000 5164.0000
5163.0000 5162.0000
5188.0000 5175.0000
5272.0000 5173.0000
5392.0000 5177.0000
5273.0000 5178.0000
5252.0000 5174.0000
5216.0000 5182.0000
5387.0000 5181.0000
5236.0000 5180.0000
5283.0000 5190.0000
5268.0000 5200.0000
5254.0000 5231.0000
5262.0000 5323.0000
5398.0000 5472.0000
5442.0000 5594.0000
5425.0000 5493.0000
5240.0000 5335.0000
5219.0000 5253.0000
5284.0000 5216.0000
5331.0000 5213.0000
5332.0000 5225.0000
5320.0000 5270.0000
5352.0000 5337.0000
5325.0000 5393.0000
5306.0000 5349.0000
5300.0000 5262.0000
5302.0000 5220.0000
5265.0000 5197.0000
5274.0000 5201.0000
5214.0000 5198.0000
5231.0000 5199.0000
5206.0000 5188.0000
5195.0000 5192.0000
5175.0000 5199.0000
5237.0000 5189.0000
5270.0000 5194.0000
5226.0000 5194.0000
5287.0000 5198.0000
5318.0000 5201.0000
5196.0000 5195.0000
5203.0000 5202.0000
5241.0000 5198.0000
5177.0000 5193.0000
5222.0000 5195.0000
5195.0000 5198.0000
5187.0000 5205.0000
5240.0000 5200.0000
5066.0000 5200.0000
5024.0000 5201.0000
5160.0000 5210.0000
5206.0000 5200.0000
5283.0000 5206.0000
5225.0000 5208.0000
5127.0000 5211.0000
5193.0000 5208.0000
5197.0000 5213.0000
5050.0000 5210.0000
5118.0000 5223.0000
5240.0000 5217.0000
5204.0000 5226.0000
5189.0000 5226.0000
5201.0000 5226.0000
5078.0000 5218.0000
5204.0000 5232.0000
5298.0000 5225.0000
5301.0000 5229.0000
5197.0000 5229.0000
5263.0000 5238.0000
5282.0000 5230.0000
5239.0000 5231.0000
5167.0000 5232.0000
5186.0000 5239.0000
5216.0000 5241.0000
5252.0000 5236.0000
5281.0000 5237.0000
5330.0000 5243.0000
5147.0000 5250.0000
5190.0000 5252.0000
5249.0000 5254.0000
5303.0000 5251.0000
5164.0000 5243.0000
5258.0000 5253.0000
5173.0000 5256.0000
5217.0000 5257.0000
5248.0000 5261.0000
5172.0000 5259.0000
5207.0000 5252.0000
5215.0000 5262.0000
5059.0000 5264.0000
5240.0000 5260.0000
5124.0000 5260.0000
5196.0000 5262.0000
5231.0000 5270.0000
5211.0000 5265.0000
5223.0000 5264.0000
5327.0000 5268.0000
5157.0000 5274.0000
5140.0000 5271.0000
5210.0000 5271.0000
5214.0000 5276.0000
5061.0000 5283.0000
5031.0000 5283.0000
5124.0000 5276.0000
5182.0000 5279.0000
5160.0000 5287.0000
5198.0000 5284.0000
5123.0000 5282.0000
5093.0000 5281.0000
5226.0000 5287.0000
5072.0000 5293.0000
5051.0000 5287.0000
5182.0000 5290.0000
5263.0000 5300.0000
5163.0000 5288.0000
5213.0000 5297.0000
5108.0000 5294.0000
5164.0000 5293.0000
5104.0000 5307.0000
5027.0000 5302.0000
5265.0000 5298.0000
5152.0000 5302.0000
5150.0000 5301.0000
5229.0000 5310.0000
5174.0000 5313.0000
5167.0000 5308.0000
5158.0000 5315.0000
5149.0000 5308.0000
5145.0000 5320.0000
5163.0000 5311.0000
5159.0000 5323.0000
5209.0000 5316.0000
5202.0000 5326.0000
5182.0000 5322.0000
5129.0000 5328.0000
5135.0000 5322.0000
5264.0000 5322.0000
5282.0000 5328.0000
5219.0000 5338.0000
5286.0000 5335.0000
5240.0000 5333.0000
5195.0000 5334.0000
5310.0000 5335.0000
5236.0000 5335.0000
5065.0000 5339.0000
5116.0000 5348.0000
5149.0000 5339.0000
5145.0000 5351.0000
5183.0000 5348.0000
5054.0000 5350.0000
5036.0000 5347.0000
5003.0000 5359.0000
4995.0000 5353.0000
5163.0000 5350.0000
5191.0000 5365.0000
5192.0000 5366.0000
5234.0000 5408.0000
loop_
_pd_peak_id
_pd_peak_2theta_centroid
_pd_peak_d_spacing
_pd_peak_pk_height
_pd_peak_width_2theta
PK1 25.717 3.461 5037.8 0.1193
PK3 36.739 2.444 11189.7 0.1136
PK5 45.437 1.995 7500.5 0.1086
PK7 52.990 1.727 1500.0 0.1037
PK9 59.856 1.544 246.1 0.0988
PK11 66.273 1.409 98.8 0.0936
PK13 72.390 1.304 273.5 0.0880
PK15 78.306 1.220 526.7 0.0817
