#------------------------------------------------------------------------------
#$Date: 2015-07-11 23:36:12 +0300 (Sat, 11 Jul 2015) $
#$Revision: 146288 $
#$URL: svn://www.crystallography.net/cod/cif/7/22/12/7221248.cif $
#------------------------------------------------------------------------------
#
# This file is available in the Crystallography Open Database (COD),
# http://www.crystallography.net/
#
# All data on this site have been placed in the public domain by the
# contributors.
#
data_7221248
loop_
_publ_author_name
'Stoehr, J.'
'Schaefer, H.'
_publ_section_title
;
 Die Kristallstrukturen von Li3 In2, Li5 Tl2 und Li3 Tl
;
_journal_name_full
;
Zeitschrift fuer Naturforschung, Teil B. Anorganische Chemie, Organische 
Chemie (33,1978-41,1986)
;
_journal_page_first              653
_journal_page_last               656
_journal_volume                  34
_journal_year                    1979
_chemical_formula_sum            'Li5 Tl2'
_chemical_name_systematic        'Li5 Tl2'
_space_group_IT_number           166
_symmetry_space_group_name_Hall  '-R 3 2"'
_symmetry_space_group_name_H-M   'R -3 m :H'
_cell_angle_alpha                90
_cell_angle_beta                 90
_cell_angle_gamma                120
_cell_formula_units_Z            3
_cell_length_a                   4.716
_cell_length_b                   4.716
_cell_length_c                   20.399
_cell_volume                     392.905
_citation_journal_id_ASTM        ZNBAD2
_cod_data_source_file            Stoehr_ZNBAD2_1979_369.cif
_cod_data_source_block           Li5Tl2
_cod_original_cell_volume        392.9046
_cod_database_code               7221248
loop_
_symmetry_equiv_pos_as_xyz
x,y,z
-y,x-y,z
-x+y,-x,z
y,x,-z
-x,-x+y,-z
x-y,-y,-z
-x,-y,-z
y,-x+y,-z
x-y,x,-z
-y,-x,z
x,x-y,z
-x+y,y,z
x+2/3,y+1/3,z+1/3
-y+2/3,x-y+1/3,z+1/3
-x+y+2/3,-x+1/3,z+1/3
y+2/3,x+1/3,-z+1/3
-x+2/3,-x+y+1/3,-z+1/3
x-y+2/3,-y+1/3,-z+1/3
-x+2/3,-y+1/3,-z+1/3
y+2/3,-x+y+1/3,-z+1/3
x-y+2/3,x+1/3,-z+1/3
-y+2/3,-x+1/3,z+1/3
x+2/3,x-y+1/3,z+1/3
-x+y+2/3,y+1/3,z+1/3
x+1/3,y+2/3,z+2/3
-y+1/3,x-y+2/3,z+2/3
-x+y+1/3,-x+2/3,z+2/3
y+1/3,x+2/3,-z+2/3
-x+1/3,-x+y+2/3,-z+2/3
x-y+1/3,-y+2/3,-z+2/3
-x+1/3,-y+2/3,-z+2/3
y+1/3,-x+y+2/3,-z+2/3
x-y+1/3,x+2/3,-z+2/3
-y+1/3,-x+2/3,z+2/3
x+1/3,x-y+2/3,z+2/3
-x+y+1/3,y+2/3,z+2/3
loop_
_atom_site_label
_atom_site_type_symbol
_atom_site_fract_x
_atom_site_fract_y
_atom_site_fract_z
_atom_site_occupancy
_atom_site_U_iso_or_equiv
Li1 Li 0 0 0.21 1 0.0
Tl1 Tl 0 0 0.0737 1 0.0
Li3 Li 0 0 0.5 1 0.0
Li2 Li 0 0 0.358 1 0.0
