#------------------------------------------------------------------------------
#$Date: 2016-02-13 21:28:24 +0200 (Sat, 13 Feb 2016) $
#$Revision: 176429 $
#$URL: svn://www.crystallography.net/cod/cif/7/22/12/7221212.cif $
#------------------------------------------------------------------------------
#
# This file is available in the Crystallography Open Database (COD),
# http://www.crystallography.net/
#
# All data on this site have been placed in the public domain by the
# contributors.
#
data_7221212
loop_
_publ_author_name
'Evers, J.'
'Oehlinger, G.'
'Weiss, A.'
_publ_section_title
;
 Kristallstruktur von Sr Ge2 bei hohen Drucken
;
_journal_name_full
;
Zeitschrift fuer Naturforschung, Teil B. Anorganische Chemie, Organische 
Chemie (33,1978-41,1986)
;
_journal_page_first              524
_journal_page_last               524
_journal_volume                  34
_journal_year                    1979
_chemical_formula_sum            'Ge2 Sr'
_chemical_name_systematic        'Sr Ge2'
_space_group_IT_number           164
_symmetry_space_group_name_Hall  '-P 3 2"'
_symmetry_space_group_name_H-M   'P -3 m 1'
_cell_angle_alpha                90
_cell_angle_beta                 90
_cell_angle_gamma                120
_cell_formula_units_Z            1
_cell_length_a                   4.104
_cell_length_b                   4.104
_cell_length_c                   5.165
_cell_volume                     75.338
_citation_journal_id_ASTM        ZNBAD2
_cod_data_source_file            Evers_ZNBAD2_1979_127.cif
_cod_data_source_block           Ge2Sr1
_cod_original_cell_volume        75.33828
_cod_original_formula_sum        'Ge2 Sr1'
_cod_database_code               7221212
loop_
_symmetry_equiv_pos_as_xyz
x,y,z
-y,x-y,z
-x+y,-x,z
y,x,-z
-x,-x+y,-z
x-y,-y,-z
-x,-y,-z
y,-x+y,-z
x-y,x,-z
-y,-x,z
x,x-y,z
-x+y,y,z
loop_
_atom_site_label
_atom_site_type_symbol
_atom_site_fract_x
_atom_site_fract_y
_atom_site_fract_z
_atom_site_occupancy
_atom_site_U_iso_or_equiv
Sr1 Sr 0 0 0 1 0.0
Ge1 Ge 0.3333 0.6667 0.406 1 0.0
