#------------------------------------------------------------------------------
#$Date: 2015-10-09 16:49:35 +0300 (Fri, 09 Oct 2015) $
#$Revision: 162198 $
#$URL: svn://www.crystallography.net/cod/cif/8/10/39/8103902.cif $
#------------------------------------------------------------------------------
#
# This file is available in the Crystallography Open Database (COD),
# http://www.crystallography.net/
#
# All data on this site have been placed in the public domain by the
# contributors.
#
data_8103902
loop_
_publ_author_name
'Somer, M.'
'Carrillo-Cabrera, W.'
'Peters, K.'
'von Schnering, H.G.'
_publ_section_title
;
 Crystal structure of tetrastrontium triarsenide, Sr4 As3
;
_journal_name_full
'Zeitschrift fuer Kristallographie (149,1979-)'
_journal_page_first              876
_journal_page_last               876
_journal_volume                  210
_journal_year                    1995
_chemical_formula_sum            'As3 Sr4'
_chemical_name_systematic        'Sr4 As3'
_space_group_IT_number           55
_symmetry_space_group_name_Hall  '-P 2 2ab'
_symmetry_space_group_name_H-M   'P b a m'
_cell_angle_alpha                90
_cell_angle_beta                 90
_cell_angle_gamma                90
_cell_formula_units_Z            8
_cell_length_a                   12.775
_cell_length_b                   12.185
_cell_length_c                   10.958
_cell_volume                     1705.759
_citation_journal_id_ASTM        ZEKRDZ
_cod_data_source_file            Somer_ZEKRDZ_1995_1853.cif
_cod_data_source_block           As3Sr4
_cod_database_code               8103902
loop_
_symmetry_equiv_pos_as_xyz
x,y,z
-x,-y,z
x+1/2,-y+1/2,-z
-x+1/2,y+1/2,-z
-x,-y,-z
x,y,-z
-x-1/2,y-1/2,z
x-1/2,-y-1/2,z
loop_
_atom_site_label
_atom_site_type_symbol
_atom_site_fract_x
_atom_site_fract_y
_atom_site_fract_z
_atom_site_occupancy
_atom_site_U_iso_or_equiv
As2 As-3 0.11352 0.13559 0.5 1 0.0
Sr5 Sr+2 0.13505 0.87512 0.5 1 0.0
Sr2 Sr+2 0.23493 0.59451 0.2765 1 0.0
As1 As-2 0 0.5 0.11645 1 0.0
Sr6 Sr+2 0 0 0.18536 1 0.0
As3 As-3 0.82323 0.16303 0.76591 1 0.0
Sr4 Sr+2 0.0662 0.32403 0.32115 1 0.0
Sr3 Sr+2 0.42153 0.22509 0 1 0.0
As4 As-2 0.09199 0.53721 0.5 1 0.0
Sr1 Sr+2 0.20744 0.39897 0 1 0.0
As5 As-3 0.14233 0.13976 0 1 0.0
