#------------------------------------------------------------------------------
#$Date: 2016-02-13 21:28:24 +0200 (Sat, 13 Feb 2016) $
#$Revision: 176429 $
#$URL: svn://www.crystallography.net/cod/cif/2/02/02/2020222.cif $
#------------------------------------------------------------------------------
#
# This file is available in the Crystallography Open Database (COD),
# http://www.crystallography.net/. The original data for this entry
# were provided by IUCr Journals, http://journals.iucr.org/.
#
# The file may be used within the scientific community so long as
# proper attribution is given to the journal article from which the
# data were obtained.
#
data_2020222
loop_
_publ_author_name
'Adenis, C.'
'Langer, V.'
'Lindqvist, O.'
_publ_section_title
;
 Reinvestigation of the structure of tellurium
;
_journal_name_full               'Acta Crystallographica C (39,1983-)'
_journal_page_first              941
_journal_page_last               942
_journal_volume                  45
_journal_year                    1989
_chemical_formula_sum            Te
_chemical_name_systematic        Te
_space_group_IT_number           152
_symmetry_space_group_name_Hall  'P 31 2"'
_symmetry_space_group_name_H-M   'P 31 2 1'
_cell_angle_alpha                90
_cell_angle_beta                 90
_cell_angle_gamma                120
_cell_formula_units_Z            3
_cell_length_a                   4.456
_cell_length_b                   4.456
_cell_length_c                   5.921
_cell_volume                     101.816
_citation_journal_id_ASTM        ACSCEE
_cod_data_source_file            Adenis_ACSCEE_1989_762.cif
_cod_data_source_block           Te1
_cod_original_formula_sum        Te1
_cod_database_code               2020222
loop_
_symmetry_equiv_pos_as_xyz
x,y,z
-y,x-y,z+1/3
-x+y,-x,z+2/3
y,x,-z
-x,-x+y,-z+1/3
x-y,-y,-z+2/3
loop_
_atom_site_label
_atom_site_type_symbol
_atom_site_fract_x
_atom_site_fract_y
_atom_site_fract_z
_atom_site_occupancy
_atom_site_U_iso_or_equiv
Te1 Te -0.2636 0 0.3333 1 0.0
