#------------------------------------------------------------------------------
#$Date: 2016-02-13 21:28:24 +0200 (Sat, 13 Feb 2016) $
#$Revision: 176429 $
#$URL: svn://www.crystallography.net/cod/cif/1/53/12/1531236.cif $
#------------------------------------------------------------------------------
#
# This file is available in the Crystallography Open Database (COD),
# http://www.crystallography.net/
#
# All data on this site have been placed in the public domain by the
# contributors.
#
data_1531236
loop_
_publ_author_name
'Burley, J.C.'
'Battle, P.D.'
'Jordan, N.A.'
'Weill, F.'
'Sloan, J.'
_publ_section_title
;
 Synthesis and structural characterization of Ba14 Pd3 Ir8 O33
;
_journal_name_full               'Journal of Solid State Chemistry'
_journal_page_first              96
_journal_page_last               103
_journal_volume                  174
_journal_year                    2003
_chemical_formula_sum            Ba
_chemical_name_systematic        Ba
_space_group_IT_number           165
_symmetry_space_group_name_Hall  '-P 3 2"c'
_symmetry_space_group_name_H-M   'P -3 c 1'
_cell_angle_alpha                90
_cell_angle_beta                 90
_cell_angle_gamma                120
_cell_formula_units_Z            6
_cell_length_a                   10.1409
_cell_length_b                   10.1409
_cell_length_c                   4.3163
_cell_volume                     384.411
_citation_journal_id_ASTM        JSSCBI
_cod_data_source_file            Burley_JSSCBI_2003_1644.cif
_cod_data_source_block           Ba1
_cod_original_cell_volume        384.4105
_cod_original_formula_sum        Ba1
_cod_database_code               1531236
loop_
_symmetry_equiv_pos_as_xyz
x,y,z
-y,x-y,z
-x+y,-x,z
y,x,-z+1/2
-x,-x+y,-z+1/2
x-y,-y,-z+1/2
-x,-y,-z
y,-x+y,-z
x-y,x,-z
-y,-x,z-1/2
x,x-y,z-1/2
-x+y,y,z-1/2
loop_
_atom_site_label
_atom_site_type_symbol
_atom_site_fract_x
_atom_site_fract_y
_atom_site_fract_z
_atom_site_occupancy
_atom_site_U_iso_or_equiv
Ba1 Ba 0.33 0 0.25 0.5 0.0
Ba2 Ba 0.35 0 0.25 0.5 0.0
