#------------------------------------------------------------------------------
#$Date: 2015-09-18 00:05:12 +0300 (Fri, 18 Sep 2015) $
#$Revision: 157075 $
#$URL: svn://www.crystallography.net/cod/cif/1/53/15/1531579.cif $
#------------------------------------------------------------------------------
#
# This file is available in the Crystallography Open Database (COD),
# http://www.crystallography.net/
#
# All data on this site have been placed in the public domain by the
# contributors.
#
data_1531579
loop_
_publ_author_name
'Kajiyama, A.'
'Takada, K.'
'Kouguchi, M.'
'Watanabe, M.'
'Inada, T.'
'Kondo, S.'
'Tabuchi, M.'
_publ_section_title
;
 Electrochemical deintercalation of lithium ions from lithium iron
 chloride spinel
;
_journal_name_full               'Solid State Ionics'
_journal_page_first              295
_journal_page_last               302
_journal_volume                  152
_journal_year                    2002
_chemical_formula_sum            'Cl4 Fe1.05'
_chemical_name_systematic        'Li1.9 Fe1.05 Cl4'
_space_group_IT_number           227
_symmetry_space_group_name_Hall  '-F 4vw 2vw 3'
_symmetry_space_group_name_H-M   'F d -3 m :2'
_cell_angle_alpha                90
_cell_angle_beta                 90
_cell_angle_gamma                90
_cell_formula_units_Z            8
_cell_length_a                   10.3769
_cell_length_b                   10.3769
_cell_length_c                   10.3769
_cell_volume                     1117.385
_citation_journal_id_ASTM        SSIOD3
_cod_data_source_file            Kajiyama_SSIOD3_2002_865.cif
_cod_data_source_block           Cl4Fe1.05
_cod_database_code               1531579
loop_
_symmetry_equiv_pos_as_xyz
x,y,z
-y,x+1/4,z+1/4
-x+3/4,-y+1/4,z+1/2
y+3/4,-x,z+3/4
x,-y+1/4,-z+1/4
y+3/4,x+1/4,-z+1/2
-x+3/4,y,-z+3/4
-y,-x,-z
z,x,y
-x,z+1/4,y+1/4
-z+3/4,-x+1/4,y+1/2
x+3/4,-z,y+3/4
z,-x+1/4,-y+1/4
x+3/4,z+1/4,-y+1/2
-z+3/4,x,-y+3/4
-x,-z,-y
y,z,x
y+1/2,-z+3/4,-x+1/4
z+1/4,y+3/4,-x+1/2
-y+1/4,z+1/2,-x+3/4
-z,-y+1/2,-x+1/2
-y+1/4,-z+1/4,x
z+1/4,-y,x+1/4
-z+1/2,y+1/4,x+3/4
-x,-y,-z
y,-x-1/4,-z-1/4
x-3/4,y-1/4,-z-1/2
-y-3/4,x,-z-3/4
-x,y-1/4,z-1/4
-y-3/4,-x-1/4,z-1/2
x-3/4,-y,z-3/4
y,x,z
-z,-x,-y
x,-z-1/4,-y-1/4
z-3/4,x-1/4,-y-1/2
-x-3/4,z,-y-3/4
-z,x-1/4,y-1/4
-x-3/4,-z-1/4,y-1/2
z-3/4,-x,y-3/4
x,z,y
-y,-z,-x
-y-1/2,z-3/4,x-1/4
-z-1/4,-y-3/4,x-1/2
y-1/4,-z-1/2,x-3/4
z,y-1/2,x-1/2
y-1/4,z-1/4,-x
-z-1/4,y,-x-1/4
z-1/2,-y-1/4,-x-3/4
x,y+1/2,z+1/2
-y,x+3/4,z+3/4
-x+3/4,-y+3/4,z+1
y+3/4,-x+1/2,z+5/4
x,-y+3/4,-z+3/4
y+3/4,x+3/4,-z+1
-x+3/4,y+1/2,-z+5/4
-y,-x+1/2,-z+1/2
z,x+1/2,y+1/2
-x,z+3/4,y+3/4
-z+3/4,-x+3/4,y+1
x+3/4,-z+1/2,y+5/4
z,-x+3/4,-y+3/4
x+3/4,z+3/4,-y+1
-z+3/4,x+1/2,-y+5/4
-x,-z+1/2,-y+1/2
y,z+1/2,x+1/2
y+1/2,-z+5/4,-x+3/4
z+1/4,y+5/4,-x+1
-y+1/4,z+1,-x+5/4
-z,-y+1,-x+1
-y+1/4,-z+3/4,x+1/2
z+1/4,-y+1/2,x+3/4
-z+1/2,y+3/4,x+5/4
-x,-y+1/2,-z+1/2
y,-x+1/4,-z+1/4
x-3/4,y+1/4,-z
-y-3/4,x+1/2,-z-1/4
-x,y+1/4,z+1/4
-y-3/4,-x+1/4,z
x-3/4,-y+1/2,z-1/4
y,x+1/2,z+1/2
-z,-x+1/2,-y+1/2
x,-z+1/4,-y+1/4
z-3/4,x+1/4,-y
-x-3/4,z+1/2,-y-1/4
-z,x+1/4,y+1/4
-x-3/4,-z+1/4,y
z-3/4,-x+1/2,y-1/4
x,z+1/2,y+1/2
-y,-z+1/2,-x+1/2
-y-1/2,z-1/4,x+1/4
-z-1/4,-y-1/4,x
y-1/4,-z,x-1/4
z,y,x
y-1/4,z+1/4,-x+1/2
-z-1/4,y+1/2,-x+1/4
z-1/2,-y+1/4,-x-1/4
x+1/2,y,z+1/2
-y+1/2,x+1/4,z+3/4
-x+5/4,-y+1/4,z+1
y+5/4,-x,z+5/4
x+1/2,-y+1/4,-z+3/4
y+5/4,x+1/4,-z+1
-x+5/4,y,-z+5/4
-y+1/2,-x,-z+1/2
z+1/2,x,y+1/2
-x+1/2,z+1/4,y+3/4
-z+5/4,-x+1/4,y+1
x+5/4,-z,y+5/4
z+1/2,-x+1/4,-y+3/4
x+5/4,z+1/4,-y+1
-z+5/4,x,-y+5/4
-x+1/2,-z,-y+1/2
y+1/2,z,x+1/2
y+1,-z+3/4,-x+3/4
z+3/4,y+3/4,-x+1
-y+3/4,z+1/2,-x+5/4
-z+1/2,-y+1/2,-x+1
-y+3/4,-z+1/4,x+1/2
z+3/4,-y,x+3/4
-z+1,y+1/4,x+5/4
-x+1/2,-y,-z+1/2
y+1/2,-x-1/4,-z+1/4
x-1/4,y-1/4,-z
-y-1/4,x,-z-1/4
-x+1/2,y-1/4,z+1/4
-y-1/4,-x-1/4,z
x-1/4,-y,z-1/4
y+1/2,x,z+1/2
-z+1/2,-x,-y+1/2
x+1/2,-z-1/4,-y+1/4
z-1/4,x-1/4,-y
-x-1/4,z,-y-1/4
-z+1/2,x-1/4,y+1/4
-x-1/4,-z-1/4,y
z-1/4,-x,y-1/4
x+1/2,z,y+1/2
-y+1/2,-z,-x+1/2
-y,z-3/4,x+1/4
-z+1/4,-y-3/4,x
y+1/4,-z-1/2,x-1/4
z+1/2,y-1/2,x
y+1/4,z-1/4,-x+1/2
-z+1/4,y,-x+1/4
z,-y-1/4,-x-1/4
x+1/2,y+1/2,z
-y+1/2,x+3/4,z+1/4
-x+5/4,-y+3/4,z+1/2
y+5/4,-x+1/2,z+3/4
x+1/2,-y+3/4,-z+1/4
y+5/4,x+3/4,-z+1/2
-x+5/4,y+1/2,-z+3/4
-y+1/2,-x+1/2,-z
z+1/2,x+1/2,y
-x+1/2,z+3/4,y+1/4
-z+5/4,-x+3/4,y+1/2
x+5/4,-z+1/2,y+3/4
z+1/2,-x+3/4,-y+1/4
x+5/4,z+3/4,-y+1/2
-z+5/4,x+1/2,-y+3/4
-x+1/2,-z+1/2,-y
y+1/2,z+1/2,x
y+1,-z+5/4,-x+1/4
z+3/4,y+5/4,-x+1/2
-y+3/4,z+1,-x+3/4
-z+1/2,-y+1,-x+1/2
-y+3/4,-z+3/4,x
z+3/4,-y+1/2,x+1/4
-z+1,y+3/4,x+3/4
-x+1/2,-y+1/2,-z
y+1/2,-x+1/4,-z-1/4
x-1/4,y+1/4,-z-1/2
-y-1/4,x+1/2,-z-3/4
-x+1/2,y+1/4,z-1/4
-y-1/4,-x+1/4,z-1/2
x-1/4,-y+1/2,z-3/4
y+1/2,x+1/2,z
-z+1/2,-x+1/2,-y
x+1/2,-z+1/4,-y-1/4
z-1/4,x+1/4,-y-1/2
-x-1/4,z+1/2,-y-3/4
-z+1/2,x+1/4,y-1/4
-x-1/4,-z+1/4,y-1/2
z-1/4,-x+1/2,y-3/4
x+1/2,z+1/2,y
-y+1/2,-z+1/2,-x
-y,z-1/4,x-1/4
-z+1/4,-y-1/4,x-1/2
y+1/4,-z,x-3/4
z+1/2,y,x-1/2
y+1/4,z+1/4,-x
-z+1/4,y+1/2,-x-1/4
z,-y+1/4,-x-3/4
loop_
_atom_site_label
_atom_site_type_symbol
_atom_site_fract_x
_atom_site_fract_y
_atom_site_fract_z
_atom_site_occupancy
_atom_site_U_iso_or_equiv
Cl1 Cl-1 0.2558 0.2558 0.2558 1 0.0
Fe1 Fe+2 0.5 0.5 0.5 0.525 0.0
