#------------------------------------------------------------------------------
#$Date: 2015-09-18 02:51:07 +0300 (Fri, 18 Sep 2015) $
#$Revision: 157449 $
#$URL: svn://www.crystallography.net/cod/cif/1/53/18/1531867.cif $
#------------------------------------------------------------------------------
#
# This file is available in the Crystallography Open Database (COD),
# http://www.crystallography.net/
#
# All data on this site have been placed in the public domain by the
# contributors.
#
data_1531867
loop_
_publ_author_name
'Migas, D.B.'
'Borisenko, V.E.'
'Miglio, L.'
'Shaposhnikov, V.L.'
_publ_section_title
;
 Structural, electronic and optical properties of Ru2 Si3, Ru2 Ge3, Os2
 Si3 and Os2 Ge3
;
_journal_name_full
'Physica Status Solidi, Sectio B: Basic Research'
_journal_page_first              171
_journal_page_last               180
_journal_volume                  231
_journal_year                    2002
_chemical_formula_sum            'Ge3 Ru2'
_chemical_name_systematic        'Ru2 Ge3'
_space_group_IT_number           60
_symmetry_space_group_name_Hall  '-P 2n 2ab'
_symmetry_space_group_name_H-M   'P b c n'
_cell_angle_alpha                90
_cell_angle_beta                 90
_cell_angle_gamma                90
_cell_formula_units_Z            8
_cell_length_a                   11.333
_cell_length_b                   9.158
_cell_length_c                   5.658
_cell_volume                     587.230
_citation_journal_id_ASTM        PSSBBD
_cod_data_source_file            Migas_PSSBBD_2002_825.cif
_cod_data_source_block           Ge3Ru2
_cod_original_cell_volume        587.2303
_cod_database_code               1531867
loop_
_symmetry_equiv_pos_as_xyz
x,y,z
-x+1/2,-y+1/2,z+1/2
x+1/2,-y+1/2,-z
-x,y,-z+1/2
-x,-y,-z
x-1/2,y-1/2,-z-1/2
-x-1/2,y-1/2,z
x,-y,z-1/2
loop_
_atom_site_label
_atom_site_type_symbol
_atom_site_fract_x
_atom_site_fract_y
_atom_site_fract_z
_atom_site_occupancy
_atom_site_U_iso_or_equiv
Ru1 Ru 0.2471 0.1871 0.2411 1 0.0
Ge1 Ge 0.4267 0.2805 0.4632 1 0.0
Ge3 Ge 0.1358 0.4002 0.4012 1 0.0
Ge2 Ge 0.3271 0.4321 0.0877 1 0.0
Ru3 Ru 0 0.5726 0.25 1 0.0
Ru2 Ru 0 0.0456 0.25 1 0.0
