#------------------------------------------------------------------------------
#$Date: 2015-09-18 00:56:55 +0300 (Fri, 18 Sep 2015) $
#$Revision: 157249 $
#$URL: svn://www.crystallography.net/cod/cif/1/53/17/1531706.cif $
#------------------------------------------------------------------------------
#
# This file is available in the Crystallography Open Database (COD),
# http://www.crystallography.net/
#
# All data on this site have been placed in the public domain by the
# contributors.
#
data_1531706
loop_
_publ_author_name
'Kloess, K.H.'
'Hinz-Huebner, D.'
'Ruschewitz, U.'
_publ_section_title
;
 Ueber eine neue Modifikation des Na2 C2
;
_journal_name_full
'Zeitschrift fuer Anorganische und Allgemeine Chemie'
_journal_page_first              2701
_journal_page_last               2704
_journal_volume                  628
_journal_year                    2002
_chemical_formula_sum            'C2 Na2'
_chemical_name_systematic        'Na2 C2'
_space_group_IT_number           142
_symmetry_space_group_name_Hall  '-I 4bd 2c'
_symmetry_space_group_name_H-M   'I 41/a c d :2'
_cell_angle_alpha                90
_cell_angle_beta                 90
_cell_angle_gamma                90
_cell_formula_units_Z            8
_cell_length_a                   6.7572
_cell_length_b                   6.7572
_cell_length_c                   12.7015
_cell_volume                     579.947
_citation_journal_id_ASTM        ZAACAB
_cod_data_source_file            Kloess_ZAACAB_2002_1024.cif
_cod_data_source_block           C2Na2
_cod_original_cell_volume        579.9473
_cod_database_code               1531706
loop_
_symmetry_equiv_pos_as_xyz
x,y,z
-y+1/4,x+3/4,z+1/4
-x+1/2,-y,z+1/2
y+1/4,-x+1/4,z+3/4
x,-y,-z+1/2
y+1/4,x+3/4,-z+3/4
-x+1/2,y,-z
-y+1/4,-x+1/4,-z+1/4
-x,-y,-z
y-1/4,-x-3/4,-z-1/4
x-1/2,y,-z-1/2
-y-1/4,x-1/4,-z-3/4
-x,y,z-1/2
-y-1/4,-x-3/4,z-3/4
x-1/2,-y,z
y-1/4,x-1/4,z-1/4
x+1/2,y+1/2,z+1/2
-y+3/4,x+5/4,z+3/4
-x+1,-y+1/2,z+1
y+3/4,-x+3/4,z+5/4
x+1/2,-y+1/2,-z+1
y+3/4,x+5/4,-z+5/4
-x+1,y+1/2,-z+1/2
-y+3/4,-x+3/4,-z+3/4
-x+1/2,-y+1/2,-z+1/2
y+1/4,-x-1/4,-z+1/4
x,y+1/2,-z
-y+1/4,x+1/4,-z-1/4
-x+1/2,y+1/2,z
-y+1/4,-x-1/4,z-1/4
x,-y+1/2,z+1/2
y+1/4,x+1/4,z+1/4
loop_
_atom_site_label
_atom_site_type_symbol
_atom_site_fract_x
_atom_site_fract_y
_atom_site_fract_z
_atom_site_occupancy
_atom_site_U_iso_or_equiv
C1 C 0.06279 0.31279 0.125 1 0.0
Na1 Na 0.18997 0 0.25 1 0.0
