#------------------------------------------------------------------------------
#$Date: 2014-07-12 11:06:43 +0300 (Sat, 12 Jul 2014) $
#$Revision: 120115 $
#$URL: svn://www.crystallography.net/cod/cif/9/01/39/9013971.cif $
#------------------------------------------------------------------------------
#
# This file is available in the Crystallography Open Database (COD),
# http://www.crystallography.net/. The original data for this entry
# were provided the American Mineralogist Crystal Structure Database,
# http://rruff.geo.arizona.edu/AMS/amcsd.php
#
# The file may be used within the scientific community so long as
# proper attribution is given to the journal article from which the
# data were obtained.
#
data_9013971
loop_
_publ_author_name
'Jorgensen, J. E.'
'Rasmussen, S. E.'
_publ_section_title
;
 Refinement of the structure of MnSi by powder diffraction
;
_journal_name_full               'Powder Diffraction'
_journal_page_first              194
_journal_page_last               195
_journal_volume                  6
_journal_year                    1991
_chemical_formula_structural     MnSi
_chemical_formula_sum            'Mn Si'
_chemical_name_mineral           Brownleeite
_space_group_IT_number           198
_symmetry_space_group_name_Hall  'P 2ac 2ab 3'
_symmetry_space_group_name_H-M   'P 21 3'
_cell_angle_alpha                90
_cell_angle_beta                 90
_cell_angle_gamma                90
_cell_length_a                   4.55613
_cell_length_b                   4.55613
_cell_length_c                   4.55613
_cell_volume                     94.578
_exptl_crystal_density_diffrn    5.831
_cod_database_code               9013971
loop_
_symmetry_equiv_pos_as_xyz
x,y,z
1/2-z,-x,1/2+y
-z,1/2+x,1/2-y
1/2+z,1/2-x,-y
z,x,y
1/2+y,1/2-z,-x
1/2-y,-z,1/2+x
-y,1/2+z,1/2-x
y,z,x
-x,1/2+y,1/2-z
1/2+x,1/2-y,-z
1/2-x,-y,1/2+z
loop_
_atom_site_label
_atom_site_fract_x
_atom_site_fract_y
_atom_site_fract_z
_atom_site_U_iso_or_equiv
Mn 0.13830 0.13830 0.13830 0.00920
Si 0.84610 0.84610 0.84610 0.01910
_journal_paper_doi 10.1017/S0885715600017504
