#------------------------------------------------------------------------------
#$Date: 2015-07-11 23:21:32 +0300 (Sat, 11 Jul 2015) $
#$Revision: 146194 $
#$URL: svn://www.crystallography.net/cod/cif/1/52/52/1525267.cif $
#------------------------------------------------------------------------------
#
# This file is available in the Crystallography Open Database (COD),
# http://www.crystallography.net/
#
# All data on this site have been placed in the public domain by the
# contributors.
#
data_1525267
loop_
_publ_author_name
'Shurin, A.K.'
'Kripyakevich, P.I.'
'Gladyshevskii, E.I.'
_publ_section_title
;
 The crystal structure of Nb Co
;
_journal_name_full               Kristallografiya
_journal_page_first              414
_journal_page_last               416
_journal_volume                  10
_journal_year                    1965
_chemical_formula_sum            'Co7 Nb6'
_chemical_name_systematic        'Co7 Nb6'
_space_group_IT_number           166
_symmetry_space_group_name_Hall  '-R 3 2"'
_symmetry_space_group_name_H-M   'R -3 m :H'
_cell_angle_alpha                90
_cell_angle_beta                 90
_cell_angle_gamma                120
_cell_formula_units_Z            3
_cell_length_a                   4.92
_cell_length_b                   4.92
_cell_length_c                   16.28
_cell_volume                     341.283
_citation_journal_id_ASTM        KRISAJ
_cod_data_source_file            Shurin_KRISAJ_1965_1126.cif
_cod_data_source_block           Co7Nb6
_cod_original_cell_volume        341.2835
_cod_database_code               1525267
loop_
_symmetry_equiv_pos_as_xyz
x,y,z
-y,x-y,z
-x+y,-x,z
y,x,-z
-x,-x+y,-z
x-y,-y,-z
-x,-y,-z
y,-x+y,-z
x-y,x,-z
-y,-x,z
x,x-y,z
-x+y,y,z
x+2/3,y+1/3,z+1/3
-y+2/3,x-y+1/3,z+1/3
-x+y+2/3,-x+1/3,z+1/3
y+2/3,x+1/3,-z+1/3
-x+2/3,-x+y+1/3,-z+1/3
x-y+2/3,-y+1/3,-z+1/3
-x+2/3,-y+1/3,-z+1/3
y+2/3,-x+y+1/3,-z+1/3
x-y+2/3,x+1/3,-z+1/3
-y+2/3,-x+1/3,z+1/3
x+2/3,x-y+1/3,z+1/3
-x+y+2/3,y+1/3,z+1/3
x+1/3,y+2/3,z+2/3
-y+1/3,x-y+2/3,z+2/3
-x+y+1/3,-x+2/3,z+2/3
y+1/3,x+2/3,-z+2/3
-x+1/3,-x+y+2/3,-z+2/3
x-y+1/3,-y+2/3,-z+2/3
-x+1/3,-y+2/3,-z+2/3
y+1/3,-x+y+2/3,-z+2/3
x-y+1/3,x+2/3,-z+2/3
-y+1/3,-x+2/3,z+2/3
x+1/3,x-y+2/3,z+2/3
-x+y+1/3,y+2/3,z+2/3
loop_
_atom_site_label
_atom_site_type_symbol
_atom_site_fract_x
_atom_site_fract_y
_atom_site_fract_z
_atom_site_occupancy
_atom_site_U_iso_or_equiv
Nb2 Nb 0 0 0.346 1 0.0
Co2 Co 0.5 0.5 0.59 1 0.0
Nb1 Nb 0 0 0.167 1 0.0
Co1 Co 0 0 0 1 0.0
Nb3 Nb 0 0 0.448 1 0.0
