#------------------------------------------------------------------------------
#$Date: 2015-07-11 22:42:38 +0300 (Sat, 11 Jul 2015) $
#$Revision: 145935 $
#$URL: svn://www.crystallography.net/cod/cif/1/52/50/1525046.cif $
#------------------------------------------------------------------------------
#
# This file is available in the Crystallography Open Database (COD),
# http://www.crystallography.net/
#
# All data on this site have been placed in the public domain by the
# contributors.
#
data_1525046
loop_
_publ_author_name
'Palenzona, A.'
'Franceschi, E.'
_publ_section_title
;
 The crystal structure of rare-earth gallides (RE5 Ga3)
;
_journal_name_full               'Journal of the Less-Common Metals'
_journal_page_first              47
_journal_page_last               53
_journal_volume                  14
_journal_year                    1968
_chemical_formula_sum            'Dy5 Ga3'
_chemical_name_systematic        'Dy5 Ga3'
_space_group_IT_number           140
_symmetry_space_group_name_Hall  '-I 4 2c'
_symmetry_space_group_name_H-M   'I 4/m c m'
_cell_angle_alpha                90
_cell_angle_beta                 90
_cell_angle_gamma                90
_cell_formula_units_Z            4
_cell_length_a                   7.635
_cell_length_b                   7.635
_cell_length_c                   14.035
_cell_volume                     818.145
_citation_journal_id_ASTM        JCOMAH
_cod_data_source_file            Palenzona_JCOMAH_1968_1682.cif
_cod_data_source_block           Dy5Ga3
_cod_original_cell_volume        818.1454
_cod_database_code               1525046
loop_
_symmetry_equiv_pos_as_xyz
x,y,z
-y,x,z
-x,-y,z
y,-x,z
x,-y,-z+1/2
y,x,-z+1/2
-x,y,-z+1/2
-y,-x,-z+1/2
-x,-y,-z
y,-x,-z
x,y,-z
-y,x,-z
-x,y,z-1/2
-y,-x,z-1/2
x,-y,z-1/2
y,x,z-1/2
x+1/2,y+1/2,z+1/2
-y+1/2,x+1/2,z+1/2
-x+1/2,-y+1/2,z+1/2
y+1/2,-x+1/2,z+1/2
x+1/2,-y+1/2,-z+1
y+1/2,x+1/2,-z+1
-x+1/2,y+1/2,-z+1
-y+1/2,-x+1/2,-z+1
-x+1/2,-y+1/2,-z+1/2
y+1/2,-x+1/2,-z+1/2
x+1/2,y+1/2,-z+1/2
-y+1/2,x+1/2,-z+1/2
-x+1/2,y+1/2,z
-y+1/2,-x+1/2,z
x+1/2,-y+1/2,z
y+1/2,x+1/2,z
loop_
_atom_site_label
_atom_site_type_symbol
_atom_site_fract_x
_atom_site_fract_y
_atom_site_fract_z
_atom_site_occupancy
_atom_site_U_iso_or_equiv
Dy2 Dy 0.17 0.67 0.146 1 0.0
Dy1 Dy 0 0 0 1 0.0
Ga1 Ga 0 0 0.25 1 0.0
Ga2 Ga 0.378 0.878 0 1 0.0
