#------------------------------------------------------------------------------
#$Date: 2016-02-13 21:28:24 +0200 (Sat, 13 Feb 2016) $
#$Revision: 176429 $
#$URL: svn://www.crystallography.net/cod/cif/1/52/52/1525205.cif $
#------------------------------------------------------------------------------
#
# This file is available in the Crystallography Open Database (COD),
# http://www.crystallography.net/
#
# All data on this site have been placed in the public domain by the
# contributors.
#
data_1525205
loop_
_publ_author_name
'Schablaske, R.V.'
'Tani, B.S.'
'Chasanov, M.G.'
_publ_section_title
;
 The crystal structures of Ti Cd and Ti2 Cd
;
_journal_name_full
'Transactions of the Metallurgical Society of Aime'
_journal_page_first              867
_journal_page_last               868
_journal_volume                  224
_journal_year                    1962
_chemical_formula_sum            'Cd Ti2'
_chemical_name_systematic        'Cd Ti2'
_space_group_IT_number           139
_symmetry_space_group_name_Hall  '-I 4 2'
_symmetry_space_group_name_H-M   'I 4/m m m'
_cell_angle_alpha                90
_cell_angle_beta                 90
_cell_angle_gamma                90
_cell_formula_units_Z            2
_cell_length_a                   2.865
_cell_length_b                   2.865
_cell_length_c                   13.42
_cell_volume                     110.154
_citation_journal_id_ASTM        TMSAAB
_cod_data_source_file            Schablaske_TMSAAB_1962_708.cif
_cod_data_source_block           Cd1Ti2
_cod_original_cell_volume        110.1544
_cod_original_formula_sum        'Cd1 Ti2'
_cod_database_code               1525205
loop_
_symmetry_equiv_pos_as_xyz
x,y,z
-y,x,z
-x,-y,z
y,-x,z
x,-y,-z
y,x,-z
-x,y,-z
-y,-x,-z
-x,-y,-z
y,-x,-z
x,y,-z
-y,x,-z
-x,y,z
-y,-x,z
x,-y,z
y,x,z
x+1/2,y+1/2,z+1/2
-y+1/2,x+1/2,z+1/2
-x+1/2,-y+1/2,z+1/2
y+1/2,-x+1/2,z+1/2
x+1/2,-y+1/2,-z+1/2
y+1/2,x+1/2,-z+1/2
-x+1/2,y+1/2,-z+1/2
-y+1/2,-x+1/2,-z+1/2
-x+1/2,-y+1/2,-z+1/2
y+1/2,-x+1/2,-z+1/2
x+1/2,y+1/2,-z+1/2
-y+1/2,x+1/2,-z+1/2
-x+1/2,y+1/2,z+1/2
-y+1/2,-x+1/2,z+1/2
x+1/2,-y+1/2,z+1/2
y+1/2,x+1/2,z+1/2
loop_
_atom_site_label
_atom_site_type_symbol
_atom_site_fract_x
_atom_site_fract_y
_atom_site_fract_z
_atom_site_occupancy
_atom_site_U_iso_or_equiv
Ti1 Ti 0 0 0.324 1 0.0
Cd1 Cd 0 0 0 1 0.0
