#------------------------------------------------------------------------------
#$Date: 2015-07-11 23:16:10 +0300 (Sat, 11 Jul 2015) $
#$Revision: 146155 $
#$URL: svn://www.crystallography.net/cod/cif/1/52/52/1525233.cif $
#------------------------------------------------------------------------------
#
# This file is available in the Crystallography Open Database (COD),
# http://www.crystallography.net/
#
# All data on this site have been placed in the public domain by the
# contributors.
#
data_1525233
loop_
_publ_author_name
'Schubert, K.'
'Meissner, H.G.'
'Rossteutscher, W.'
_publ_section_title
;
 Einige Strukturdaten metallischer Phasen (II)
;
_journal_name_full               Naturwissenschaften
_journal_page_first              507
_journal_page_last               509
_journal_volume                  51
_journal_year                    1964
_chemical_formula_sum            'Cu4 Ti3'
_chemical_name_systematic        'Cu4 Ti3'
_space_group_IT_number           139
_symmetry_space_group_name_Hall  '-I 4 2'
_symmetry_space_group_name_H-M   'I 4/m m m'
_cell_angle_alpha                90
_cell_angle_beta                 90
_cell_angle_gamma                90
_cell_formula_units_Z            2
_cell_length_a                   3.12
_cell_length_b                   3.12
_cell_length_c                   19.94
_cell_volume                     194.104
_citation_journal_id_ASTM        NATWAY
_cod_data_source_file            Schubert_NATWAY_1964_1638.cif
_cod_data_source_block           Cu4Ti3
_cod_original_cell_volume        194.1039
_cod_database_code               1525233
loop_
_symmetry_equiv_pos_as_xyz
x,y,z
-y,x,z
-x,-y,z
y,-x,z
x,-y,-z
y,x,-z
-x,y,-z
-y,-x,-z
-x,-y,-z
y,-x,-z
x,y,-z
-y,x,-z
-x,y,z
-y,-x,z
x,-y,z
y,x,z
x+1/2,y+1/2,z+1/2
-y+1/2,x+1/2,z+1/2
-x+1/2,-y+1/2,z+1/2
y+1/2,-x+1/2,z+1/2
x+1/2,-y+1/2,-z+1/2
y+1/2,x+1/2,-z+1/2
-x+1/2,y+1/2,-z+1/2
-y+1/2,-x+1/2,-z+1/2
-x+1/2,-y+1/2,-z+1/2
y+1/2,-x+1/2,-z+1/2
x+1/2,y+1/2,-z+1/2
-y+1/2,x+1/2,-z+1/2
-x+1/2,y+1/2,z+1/2
-y+1/2,-x+1/2,z+1/2
x+1/2,-y+1/2,z+1/2
y+1/2,x+1/2,z+1/2
loop_
_atom_site_label
_atom_site_type_symbol
_atom_site_fract_x
_atom_site_fract_y
_atom_site_fract_z
_atom_site_occupancy
_atom_site_U_iso_or_equiv
Cu2 Cu 0 0 0.43 1 0.0
Cu1 Cu 0 0 0.135 1 0.0
Ti1 Ti 0 0 0 1 0.0
Ti2 Ti 0 0 0.295 1 0.0
