#------------------------------------------------------------------------------
#$Date: 2015-07-11 22:55:57 +0300 (Sat, 11 Jul 2015) $
#$Revision: 146018 $
#$URL: svn://www.crystallography.net/cod/cif/1/52/51/1525120.cif $
#------------------------------------------------------------------------------
#
# This file is available in the Crystallography Open Database (COD),
# http://www.crystallography.net/
#
# All data on this site have been placed in the public domain by the
# contributors.
#
data_1525120
loop_
_publ_author_name
'Quinn, T.J.'
'Hume-Rothery, W.'
_publ_section_title
;
 The equilibrium diagram of the system molybdenum-cobalt
;
_journal_name_full               'Journal of the Less-Common Metals'
_journal_page_first              314
_journal_page_last               324
_journal_volume                  5
_journal_year                    1963
_chemical_formula_sum            'Co0.82 Mo0.18'
_chemical_name_systematic        '(Co0.82 Mo0.18)'
_space_group_IT_number           194
_symmetry_space_group_name_Hall  '-P 6c 2c'
_symmetry_space_group_name_H-M   'P 63/m m c'
_cell_angle_alpha                90
_cell_angle_beta                 90
_cell_angle_gamma                120
_cell_formula_units_Z            2
_cell_length_a                   2.5973
_cell_length_b                   2.5973
_cell_length_c                   4.2124
_cell_volume                     24.610
_citation_journal_id_ASTM        JCOMAH
_cod_data_source_file            Quinn_JCOMAH_1963_1119.cif
_cod_data_source_block           Co0.82Mo0.18
_cod_original_cell_volume        24.6096
_cod_database_code               1525120
loop_
_symmetry_equiv_pos_as_xyz
x,y,z
x-y,x,z+1/2
-y,x-y,z
-x,-y,z+1/2
-x+y,-x,z
y,-x+y,z+1/2
-y,-x,-z+1/2
x-y,-y,-z
x,x-y,-z+1/2
y,x,-z
-x+y,y,-z+1/2
-x,-x+y,-z
-x,-y,-z
-x+y,-x,-z-1/2
y,-x+y,-z
x,y,-z-1/2
x-y,x,-z
-y,x-y,-z-1/2
y,x,z-1/2
-x+y,y,z
-x,-x+y,z-1/2
-y,-x,z
x-y,-y,z-1/2
x,x-y,z
loop_
_atom_site_label
_atom_site_type_symbol
_atom_site_fract_x
_atom_site_fract_y
_atom_site_fract_z
_atom_site_occupancy
_atom_site_U_iso_or_equiv
Mo1 Mo 0.3333 0.6667 0.25 0.18 0.0
Co1 Co 0.3333 0.6667 0.25 0.82 0.0
