#------------------------------------------------------------------------------
#$Date: 2016-01-25 03:21:24 +0200 (Mon, 25 Jan 2016) $
#$Revision: 174989 $
#$URL: svn://www.crystallography.net/cod/cif/1/52/55/1525522.cif $
#------------------------------------------------------------------------------
#
# This file is available in the Crystallography Open Database (COD),
# http://www.crystallography.net/
#
# All data on this site have been placed in the public domain by the
# contributors.
#
data_1525522
loop_
_publ_author_name
'Zintl, E.'
'Schneider, A.'
_publ_section_title
;
 Konstitution der Lithium-Cadmium-Legierungen:
 13. Mitteilung \"uber Metalle und Legierungen
;
_journal_issue                   5
_journal_name_full
;
 Zeitschrift f\"ur Elektrochemie und angewandte physikalische Chemie
;
_journal_page_first              294
_journal_page_last               297
_journal_paper_doi               10.1002/bbpc.19350410513
_journal_volume                  41
_journal_year                    1935
_chemical_formula_sum            'Cd1.5 Li0.5'
_chemical_name_systematic        'Cd1.5 Li0.5'
_space_group_IT_number           194
_symmetry_space_group_name_Hall  '-P 6c 2c'
_symmetry_space_group_name_H-M   'P 63/m m c'
_cell_angle_alpha                90
_cell_angle_beta                 90
_cell_angle_gamma                120
_cell_formula_units_Z            1
_cell_length_a                   3.089
_cell_length_b                   3.089
_cell_length_c                   4.899
_cell_volume                     40.483
_citation_journal_id_ASTM        ZEELAI
_cod_data_source_file            Zintl_ZEELAI_1935_646.cif
_cod_data_source_block           Cd1.5Li0.5
_cod_original_cell_volume        40.48311
_cod_database_code               1525522
loop_
_symmetry_equiv_pos_as_xyz
x,y,z
x-y,x,z+1/2
-y,x-y,z
-x,-y,z+1/2
-x+y,-x,z
y,-x+y,z+1/2
-y,-x,-z+1/2
x-y,-y,-z
x,x-y,-z+1/2
y,x,-z
-x+y,y,-z+1/2
-x,-x+y,-z
-x,-y,-z
-x+y,-x,-z-1/2
y,-x+y,-z
x,y,-z-1/2
x-y,x,-z
-y,x-y,-z-1/2
y,x,z-1/2
-x+y,y,z
-x,-x+y,z-1/2
-y,-x,z
x-y,-y,z-1/2
x,x-y,z
loop_
_atom_site_label
_atom_site_type_symbol
_atom_site_fract_x
_atom_site_fract_y
_atom_site_fract_z
_atom_site_occupancy
_atom_site_U_iso_or_equiv
Cd1 Cd 0.3333 0.6667 0.25 0.75 0.0
Li1 Li 0.3333 0.6667 0.25 0.25 0.0
