#------------------------------------------------------------------------------
#$Date: 2016-02-13 21:28:24 +0200 (Sat, 13 Feb 2016) $
#$Revision: 176429 $
#$URL: svn://www.crystallography.net/cod/cif/1/52/52/1525235.cif $
#------------------------------------------------------------------------------
#
# This file is available in the Crystallography Open Database (COD),
# http://www.crystallography.net/
#
# All data on this site have been placed in the public domain by the
# contributors.
#
data_1525235
loop_
_publ_author_name
'Schubert, K.'
'Anderko, K.'
_publ_section_title
;
 Kristallstruktur von Ni Mg2, Cu Mg2 und Au Mg3
;
_journal_name_full               'Zeitschrift fuer Metallkunde'
_journal_page_first              321
_journal_page_last               325
_journal_volume                  42
_journal_year                    1951
_chemical_formula_sum            'Cu Mg2'
_chemical_name_systematic        'Cu Mg2'
_space_group_IT_number           70
_symmetry_space_group_name_Hall  'F 2 2 -1d'
_symmetry_space_group_name_H-M   'F d d d :1'
_cell_angle_alpha                90
_cell_angle_beta                 90
_cell_angle_gamma                90
_cell_formula_units_Z            16
_cell_length_a                   9.07
_cell_length_b                   5.284
_cell_length_c                   18.25
_cell_volume                     874.647
_citation_journal_id_ASTM        ZEMTAE
_cod_data_source_file            Schubert_ZEMTAE_1951_1562.cif
_cod_data_source_block           Cu1Mg2
_cod_original_cell_volume        874.6473
_cod_original_sg_symbol_Hall     '-F 2uv 2vw (x+1/8,y+1/8,z+1/8)'
_cod_original_formula_sum        'Cu1 Mg2'
_cod_database_code               1525235
loop_
_symmetry_equiv_pos_as_xyz
x,y,z
-x+1/2,-y+1/2,z
x,-y+1/2,-z+1/2
-x+1/2,y,-z+1/2
-x+1/4,-y+1/4,-z+1/4
x-1/4,y-1/4,-z+1/4
-x+1/4,y-1/4,z-1/4
x-1/4,-y+1/4,z-1/4
x,y+1/2,z+1/2
-x+1/2,-y+1,z+1/2
x,-y+1,-z+1
-x+1/2,y+1/2,-z+1
-x+1/4,-y+3/4,-z+3/4
x-1/4,y+1/4,-z+3/4
-x+1/4,y+1/4,z+1/4
x-1/4,-y+3/4,z+1/4
x+1/2,y,z+1/2
-x+1,-y+1/2,z+1/2
x+1/2,-y+1/2,-z+1
-x+1,y,-z+1
-x+3/4,-y+1/4,-z+3/4
x+1/4,y-1/4,-z+3/4
-x+3/4,y-1/4,z+1/4
x+1/4,-y+1/4,z+1/4
x+1/2,y+1/2,z
-x+1,-y+1,z
x+1/2,-y+1,-z+1/2
-x+1,y+1/2,-z+1/2
-x+3/4,-y+3/4,-z+1/4
x+1/4,y+1/4,-z+1/4
-x+3/4,y+1/4,z-1/4
x+1/4,-y+3/4,z-1/4
loop_
_atom_site_label
_atom_site_type_symbol
_atom_site_fract_x
_atom_site_fract_y
_atom_site_fract_z
_atom_site_occupancy
_atom_site_U_iso_or_equiv
Cu1 Cu 0 0 0.128 1 0.0
Mg2 Mg 0 0 0.411 1 0.0
Mg1 Mg 0.161 0 0 1 0.0
