#------------------------------------------------------------------------------
#$Date: 2015-07-11 23:29:45 +0300 (Sat, 11 Jul 2015) $
#$Revision: 146244 $
#$URL: svn://www.crystallography.net/cod/cif/1/52/53/1525315.cif $
#------------------------------------------------------------------------------
#
# This file is available in the Crystallography Open Database (COD),
# http://www.crystallography.net/
#
# All data on this site have been placed in the public domain by the
# contributors.
#
data_1525315
loop_
_publ_author_name
'Smidt, F.A.jr.'
'Daane, A.H.'
_publ_section_title
;
 Electrical resistivity of rare-earth alloys
;
_journal_name_full               'Journal of Physics and Chemistry of Solids'
_journal_page_first              361
_journal_page_last               370
_journal_volume                  24
_journal_year                    1963
_chemical_formula_sum            'Er0.55 Gd0.45'
_chemical_name_systematic        '(Er0.55 Gd0.45)'
_space_group_IT_number           194
_symmetry_space_group_name_Hall  '-P 6c 2c'
_symmetry_space_group_name_H-M   'P 63/m m c'
_cell_angle_alpha                90
_cell_angle_beta                 90
_cell_angle_gamma                120
_cell_formula_units_Z            2
_cell_length_a                   3.601
_cell_length_b                   3.601
_cell_length_c                   5.686
_cell_volume                     63.853
_citation_journal_id_ASTM        JPCSAW
_cod_data_source_file            Smidt_JPCSAW_1963_1726.cif
_cod_data_source_block           Er0.55Gd0.45
_cod_original_cell_volume        63.85336
_cod_database_code               1525315
loop_
_symmetry_equiv_pos_as_xyz
x,y,z
x-y,x,z+1/2
-y,x-y,z
-x,-y,z+1/2
-x+y,-x,z
y,-x+y,z+1/2
-y,-x,-z+1/2
x-y,-y,-z
x,x-y,-z+1/2
y,x,-z
-x+y,y,-z+1/2
-x,-x+y,-z
-x,-y,-z
-x+y,-x,-z-1/2
y,-x+y,-z
x,y,-z-1/2
x-y,x,-z
-y,x-y,-z-1/2
y,x,z-1/2
-x+y,y,z
-x,-x+y,z-1/2
-y,-x,z
x-y,-y,z-1/2
x,x-y,z
loop_
_atom_site_label
_atom_site_type_symbol
_atom_site_fract_x
_atom_site_fract_y
_atom_site_fract_z
_atom_site_occupancy
_atom_site_U_iso_or_equiv
Er1 Er 0.3333 0.6667 0.25 0.55 0.0
Gd1 Gd 0.3333 0.6667 0.25 0.45 0.0
