#------------------------------------------------------------------------------
#$Date: 2016-02-13 21:28:24 +0200 (Sat, 13 Feb 2016) $
#$Revision: 176429 $
#$URL: svn://www.crystallography.net/cod/cif/1/52/51/1525175.cif $
#------------------------------------------------------------------------------
#
# This file is available in the Crystallography Open Database (COD),
# http://www.crystallography.net/
#
# All data on this site have been placed in the public domain by the
# contributors.
#
data_1525175
loop_
_publ_author_name
'Rossi, D.'
'Marazza, R.'
'Mazzone, D.'
'Ferro, R.'
_publ_section_title
;
 RE In Cd, RE As Pd and RE Sb Pt compounds (RE= rare earth element)
;
_journal_name_full               'Journal of the Less-Common Metals'
_journal_page_first              P1
_journal_page_last               P5
_journal_volume                  78
_journal_year                    1981
_chemical_formula_sum            'Cd13 K'
_chemical_name_systematic        'Cd13 K'
_space_group_IT_number           226
_symmetry_space_group_name_Hall  '-F 4a 2 3'
_symmetry_space_group_name_H-M   'F m -3 c'
_cell_angle_alpha                90
_cell_angle_beta                 90
_cell_angle_gamma                90
_cell_formula_units_Z            8
_cell_length_a                   13.785
_cell_length_b                   13.785
_cell_length_c                   13.785
_cell_volume                     2619.512
_citation_journal_id_ASTM        JCOMAH
_cod_data_source_file            Rossi_JCOMAH_1981_638.cif
_cod_data_source_block           Cd13K1
_cod_original_cell_volume        2619.511
_cod_original_formula_sum        'Cd13 K1'
_cod_database_code               1525175
loop_
_symmetry_equiv_pos_as_xyz
x,y,z
-y+1/2,x,z
-x+1/2,-y+1/2,z
y,-x+1/2,z
x,-y,-z
y+1/2,x,-z
-x+1/2,y+1/2,-z
-y,-x+1/2,-z
z,x,y
-x+1/2,z,y
-z+1/2,-x+1/2,y
x,-z+1/2,y
z,-x,-y
x+1/2,z,-y
-z+1/2,x+1/2,-y
-x,-z+1/2,-y
y,z,x
y,-z+1/2,-x+1/2
z,y,-x+1/2
-y+1/2,z,-x+1/2
-z+1/2,-y,-x
-y,-z,x
z,-y,x+1/2
-z+1/2,y+1/2,x+1/2
-x,-y,-z
y-1/2,-x,-z
x-1/2,y-1/2,-z
-y,x-1/2,-z
-x,y,z
-y-1/2,-x,z
x-1/2,-y-1/2,z
y,x-1/2,z
-z,-x,-y
x-1/2,-z,-y
z-1/2,x-1/2,-y
-x,z-1/2,-y
-z,x,y
-x-1/2,-z,y
z-1/2,-x-1/2,y
x,z-1/2,y
-y,-z,-x
-y,z-1/2,x-1/2
-z,-y,x-1/2
y-1/2,-z,x-1/2
z-1/2,y,x
y,z,-x
-z,y,-x-1/2
z-1/2,-y-1/2,-x-1/2
x,y+1/2,z+1/2
-y+1/2,x+1/2,z+1/2
-x+1/2,-y+1,z+1/2
y,-x+1,z+1/2
x,-y+1/2,-z+1/2
y+1/2,x+1/2,-z+1/2
-x+1/2,y+1,-z+1/2
-y,-x+1,-z+1/2
z,x+1/2,y+1/2
-x+1/2,z+1/2,y+1/2
-z+1/2,-x+1,y+1/2
x,-z+1,y+1/2
z,-x+1/2,-y+1/2
x+1/2,z+1/2,-y+1/2
-z+1/2,x+1,-y+1/2
-x,-z+1,-y+1/2
y,z+1/2,x+1/2
y,-z+1,-x+1
z,y+1/2,-x+1
-y+1/2,z+1/2,-x+1
-z+1/2,-y+1/2,-x+1/2
-y,-z+1/2,x+1/2
z,-y+1/2,x+1
-z+1/2,y+1,x+1
-x,-y+1/2,-z+1/2
y-1/2,-x+1/2,-z+1/2
x-1/2,y,-z+1/2
-y,x,-z+1/2
-x,y+1/2,z+1/2
-y-1/2,-x+1/2,z+1/2
x-1/2,-y,z+1/2
y,x,z+1/2
-z,-x+1/2,-y+1/2
x-1/2,-z+1/2,-y+1/2
z-1/2,x,-y+1/2
-x,z,-y+1/2
-z,x+1/2,y+1/2
-x-1/2,-z+1/2,y+1/2
z-1/2,-x,y+1/2
x,z,y+1/2
-y,-z+1/2,-x+1/2
-y,z,x
-z,-y+1/2,x
y-1/2,-z+1/2,x
z-1/2,y+1/2,x+1/2
y,z+1/2,-x+1/2
-z,y+1/2,-x
z-1/2,-y,-x
x+1/2,y,z+1/2
-y+1,x,z+1/2
-x+1,-y+1/2,z+1/2
y+1/2,-x+1/2,z+1/2
x+1/2,-y,-z+1/2
y+1,x,-z+1/2
-x+1,y+1/2,-z+1/2
-y+1/2,-x+1/2,-z+1/2
z+1/2,x,y+1/2
-x+1,z,y+1/2
-z+1,-x+1/2,y+1/2
x+1/2,-z+1/2,y+1/2
z+1/2,-x,-y+1/2
x+1,z,-y+1/2
-z+1,x+1/2,-y+1/2
-x+1/2,-z+1/2,-y+1/2
y+1/2,z,x+1/2
y+1/2,-z+1/2,-x+1
z+1/2,y,-x+1
-y+1,z,-x+1
-z+1,-y,-x+1/2
-y+1/2,-z,x+1/2
z+1/2,-y,x+1
-z+1,y+1/2,x+1
-x+1/2,-y,-z+1/2
y,-x,-z+1/2
x,y-1/2,-z+1/2
-y+1/2,x-1/2,-z+1/2
-x+1/2,y,z+1/2
-y,-x,z+1/2
x,-y-1/2,z+1/2
y+1/2,x-1/2,z+1/2
-z+1/2,-x,-y+1/2
x,-z,-y+1/2
z,x-1/2,-y+1/2
-x+1/2,z-1/2,-y+1/2
-z+1/2,x,y+1/2
-x,-z,y+1/2
z,-x-1/2,y+1/2
x+1/2,z-1/2,y+1/2
-y+1/2,-z,-x+1/2
-y+1/2,z-1/2,x
-z+1/2,-y,x
y,-z,x
z,y,x+1/2
y+1/2,z,-x+1/2
-z+1/2,y,-x
z,-y-1/2,-x
x+1/2,y+1/2,z
-y+1,x+1/2,z
-x+1,-y+1,z
y+1/2,-x+1,z
x+1/2,-y+1/2,-z
y+1,x+1/2,-z
-x+1,y+1,-z
-y+1/2,-x+1,-z
z+1/2,x+1/2,y
-x+1,z+1/2,y
-z+1,-x+1,y
x+1/2,-z+1,y
z+1/2,-x+1/2,-y
x+1,z+1/2,-y
-z+1,x+1,-y
-x+1/2,-z+1,-y
y+1/2,z+1/2,x
y+1/2,-z+1,-x+1/2
z+1/2,y+1/2,-x+1/2
-y+1,z+1/2,-x+1/2
-z+1,-y+1/2,-x
-y+1/2,-z+1/2,x
z+1/2,-y+1/2,x+1/2
-z+1,y+1,x+1/2
-x+1/2,-y+1/2,-z
y,-x+1/2,-z
x,y,-z
-y+1/2,x,-z
-x+1/2,y+1/2,z
-y,-x+1/2,z
x,-y,z
y+1/2,x,z
-z+1/2,-x+1/2,-y
x,-z+1/2,-y
z,x,-y
-x+1/2,z,-y
-z+1/2,x+1/2,y
-x,-z+1/2,y
z,-x,y
x+1/2,z,y
-y+1/2,-z+1/2,-x
-y+1/2,z,x-1/2
-z+1/2,-y+1/2,x-1/2
y,-z+1/2,x-1/2
z,y+1/2,x
y+1/2,z+1/2,-x
-z+1/2,y+1/2,-x-1/2
z,-y,-x-1/2
loop_
_atom_site_label
_atom_site_type_symbol
_atom_site_fract_x
_atom_site_fract_y
_atom_site_fract_z
_atom_site_occupancy
_atom_site_U_iso_or_equiv
Cd1 Cd 0 0 0 1 0.0
Cd2 Cd 0 0.117 0.163 1 0.0
K1 K 0.25 0.25 0.25 1 0.0
