#------------------------------------------------------------------------------
#$Date: 2015-07-11 23:16:18 +0300 (Sat, 11 Jul 2015) $
#$Revision: 146156 $
#$URL: svn://www.crystallography.net/cod/cif/1/52/52/1525234.cif $
#------------------------------------------------------------------------------
#
# This file is available in the Crystallography Open Database (COD),
# http://www.crystallography.net/
#
# All data on this site have been placed in the public domain by the
# contributors.
#
data_1525234
loop_
_publ_author_name
'Schubert, K.'
'Wall, E.'
_publ_section_title
;
 Zur Kristallstruktur der delta-Hochtemperaturphase des Systems
 Kupfer-Zinc
;
_journal_name_full               'Zeitschrift fuer Metallkunde'
_journal_page_first              383
_journal_page_last               385
_journal_volume                  40
_journal_year                    1949
_chemical_formula_sum            'Cu0.255 Zn0.745'
_chemical_name_systematic        '(Cu0.255 Zn0.745)'
_space_group_IT_number           229
_symmetry_space_group_name_Hall  '-I 4 2 3'
_symmetry_space_group_name_H-M   'I m -3 m'
_cell_angle_alpha                90
_cell_angle_beta                 90
_cell_angle_gamma                90
_cell_formula_units_Z            2
_cell_length_a                   3.001
_cell_length_b                   3.001
_cell_length_c                   3.001
_cell_volume                     27.027
_citation_journal_id_ASTM        ZEMTAE
_cod_data_source_file            Schubert_ZEMTAE_1949_1654.cif
_cod_data_source_block           Cu0.255Zn0.745
_cod_original_cell_volume        27.02701
_cod_database_code               1525234
loop_
_symmetry_equiv_pos_as_xyz
x,y,z
-y,x,z
-x,-y,z
y,-x,z
x,-y,-z
y,x,-z
-x,y,-z
-y,-x,-z
z,x,y
-x,z,y
-z,-x,y
x,-z,y
z,-x,-y
x,z,-y
-z,x,-y
-x,-z,-y
y,z,x
y,-z,-x
z,y,-x
-y,z,-x
-z,-y,-x
-y,-z,x
z,-y,x
-z,y,x
-x,-y,-z
y,-x,-z
x,y,-z
-y,x,-z
-x,y,z
-y,-x,z
x,-y,z
y,x,z
-z,-x,-y
x,-z,-y
z,x,-y
-x,z,-y
-z,x,y
-x,-z,y
z,-x,y
x,z,y
-y,-z,-x
-y,z,x
-z,-y,x
y,-z,x
z,y,x
y,z,-x
-z,y,-x
z,-y,-x
x+1/2,y+1/2,z+1/2
-y+1/2,x+1/2,z+1/2
-x+1/2,-y+1/2,z+1/2
y+1/2,-x+1/2,z+1/2
x+1/2,-y+1/2,-z+1/2
y+1/2,x+1/2,-z+1/2
-x+1/2,y+1/2,-z+1/2
-y+1/2,-x+1/2,-z+1/2
z+1/2,x+1/2,y+1/2
-x+1/2,z+1/2,y+1/2
-z+1/2,-x+1/2,y+1/2
x+1/2,-z+1/2,y+1/2
z+1/2,-x+1/2,-y+1/2
x+1/2,z+1/2,-y+1/2
-z+1/2,x+1/2,-y+1/2
-x+1/2,-z+1/2,-y+1/2
y+1/2,z+1/2,x+1/2
y+1/2,-z+1/2,-x+1/2
z+1/2,y+1/2,-x+1/2
-y+1/2,z+1/2,-x+1/2
-z+1/2,-y+1/2,-x+1/2
-y+1/2,-z+1/2,x+1/2
z+1/2,-y+1/2,x+1/2
-z+1/2,y+1/2,x+1/2
-x+1/2,-y+1/2,-z+1/2
y+1/2,-x+1/2,-z+1/2
x+1/2,y+1/2,-z+1/2
-y+1/2,x+1/2,-z+1/2
-x+1/2,y+1/2,z+1/2
-y+1/2,-x+1/2,z+1/2
x+1/2,-y+1/2,z+1/2
y+1/2,x+1/2,z+1/2
-z+1/2,-x+1/2,-y+1/2
x+1/2,-z+1/2,-y+1/2
z+1/2,x+1/2,-y+1/2
-x+1/2,z+1/2,-y+1/2
-z+1/2,x+1/2,y+1/2
-x+1/2,-z+1/2,y+1/2
z+1/2,-x+1/2,y+1/2
x+1/2,z+1/2,y+1/2
-y+1/2,-z+1/2,-x+1/2
-y+1/2,z+1/2,x+1/2
-z+1/2,-y+1/2,x+1/2
y+1/2,-z+1/2,x+1/2
z+1/2,y+1/2,x+1/2
y+1/2,z+1/2,-x+1/2
-z+1/2,y+1/2,-x+1/2
z+1/2,-y+1/2,-x+1/2
loop_
_atom_site_label
_atom_site_type_symbol
_atom_site_fract_x
_atom_site_fract_y
_atom_site_fract_z
_atom_site_occupancy
_atom_site_U_iso_or_equiv
Zn1 Zn 0 0 0 0.745 0.0
Cu1 Cu 0 0 0 0.255 0.0
