#------------------------------------------------------------------------------
#$Date: 2016-02-13 21:28:24 +0200 (Sat, 13 Feb 2016) $
#$Revision: 176429 $
#$URL: svn://www.crystallography.net/cod/cif/1/52/51/1525123.cif $
#------------------------------------------------------------------------------
#
# This file is available in the Crystallography Open Database (COD),
# http://www.crystallography.net/
#
# All data on this site have been placed in the public domain by the
# contributors.
#
data_1525123
loop_
_publ_author_name
'Radchenko, V.M.'
'Shushakov, V.D.'
'Seleznev, A.G.'
'Ryabinin, M.A.'
'Vasil'ev, V.Ya.'
'Lebedeva, L.S.'
_publ_section_title
;
 Synthesis and study of binary compounds of actinides and lanthanides.
 VIII: Intermetallides of Bk and Cf with Pt
;
_journal_name_full               Radiokhimiya
_journal_page_first              445
_journal_page_last               448
_journal_volume                  28
_journal_year                    1986
_chemical_formula_sum            'Cf Pt5'
_chemical_name_systematic        'Cf Pt5'
_space_group_IT_number           191
_symmetry_space_group_name_Hall  '-P 6 2'
_symmetry_space_group_name_H-M   'P 6/m m m'
_cell_angle_alpha                90
_cell_angle_beta                 90
_cell_angle_gamma                120
_cell_formula_units_Z            1
_cell_length_a                   5.266
_cell_length_b                   5.266
_cell_length_c                   4.42
_cell_volume                     106.149
_citation_journal_id_ASTM        RADKAU
_cod_data_source_file            Radchenko_RADKAU_1986_906.cif
_cod_data_source_block           Cf1Pt5
_cod_original_cell_volume        106.1487
_cod_original_formula_sum        'Cf1 Pt5'
_cod_database_code               1525123
loop_
_symmetry_equiv_pos_as_xyz
x,y,z
x-y,x,z
-y,x-y,z
-x,-y,z
-x+y,-x,z
y,-x+y,z
-y,-x,-z
x-y,-y,-z
x,x-y,-z
y,x,-z
-x+y,y,-z
-x,-x+y,-z
-x,-y,-z
-x+y,-x,-z
y,-x+y,-z
x,y,-z
x-y,x,-z
-y,x-y,-z
y,x,z
-x+y,y,z
-x,-x+y,z
-y,-x,z
x-y,-y,z
x,x-y,z
loop_
_atom_site_label
_atom_site_type_symbol
_atom_site_fract_x
_atom_site_fract_y
_atom_site_fract_z
_atom_site_occupancy
_atom_site_U_iso_or_equiv
Pt1 Pt 0.3333 0.6667 0 1 0.0
Pt2 Pt 0.5 0 0.5 1 0.0
Cf1 Cf 0 0 0 1 0.0
