#------------------------------------------------------------------------------
#$Date: 2016-02-13 21:28:24 +0200 (Sat, 13 Feb 2016) $
#$Revision: 176429 $
#$URL: svn://www.crystallography.net/cod/cif/1/52/52/1525293.cif $
#------------------------------------------------------------------------------
#
# This file is available in the Crystallography Open Database (COD),
# http://www.crystallography.net/
#
# All data on this site have been placed in the public domain by the
# contributors.
#
data_1525293
loop_
_publ_author_name
'Simon, A.'
'Braemer, W.'
'Hillenkoetter, B.'
'Kullmann, H.J.'
_publ_section_title
;
 Neue Verbindungen zwischen Kalium und Caesium
;
_journal_name_full
'Zeitschrift fuer Anorganische und Allgemeine Chemie'
_journal_page_first              253
_journal_page_last               274
_journal_volume                  419
_journal_year                    1976
_chemical_formula_sum            'Cs K2'
_chemical_name_systematic        'Cs K2'
_space_group_IT_number           194
_symmetry_space_group_name_Hall  '-P 6c 2c'
_symmetry_space_group_name_H-M   'P 63/m m c'
_cell_angle_alpha                90
_cell_angle_beta                 90
_cell_angle_gamma                120
_cell_formula_units_Z            4
_cell_length_a                   9.065
_cell_length_b                   9.065
_cell_length_c                   14.755
_cell_volume                     1050.039
_citation_journal_id_ASTM        ZAACAB
_cod_data_source_file            Simon_ZAACAB_1976_1394.cif
_cod_data_source_block           Cs1K2
_cod_original_formula_sum        'Cs1 K2'
_cod_database_code               1525293
loop_
_symmetry_equiv_pos_as_xyz
x,y,z
x-y,x,z+1/2
-y,x-y,z
-x,-y,z+1/2
-x+y,-x,z
y,-x+y,z+1/2
-y,-x,-z+1/2
x-y,-y,-z
x,x-y,-z+1/2
y,x,-z
-x+y,y,-z+1/2
-x,-x+y,-z
-x,-y,-z
-x+y,-x,-z-1/2
y,-x+y,-z
x,y,-z-1/2
x-y,x,-z
-y,x-y,-z-1/2
y,x,z-1/2
-x+y,y,z
-x,-x+y,z-1/2
-y,-x,z
x-y,-y,z-1/2
x,x-y,z
loop_
_atom_site_label
_atom_site_type_symbol
_atom_site_fract_x
_atom_site_fract_y
_atom_site_fract_z
_atom_site_occupancy
_atom_site_U_iso_or_equiv
Cs1 Cs 0.3333 0.6667 0.063 1 0.0
K2 K 0.833 0.666 0.25 1 0.0
K1 K 0 0 0 1 0.0
