#------------------------------------------------------------------------------
#$Date: 2015-07-11 22:41:37 +0300 (Sat, 11 Jul 2015) $
#$Revision: 145927 $
#$URL: svn://www.crystallography.net/cod/cif/1/52/50/1525038.cif $
#------------------------------------------------------------------------------
#
# This file is available in the Crystallography Open Database (COD),
# http://www.crystallography.net/
#
# All data on this site have been placed in the public domain by the
# contributors.
#
data_1525038
loop_
_publ_author_name
'Owen, E.A.'
'Davies, D.A.'
_publ_section_title
;
 An X-ray study of the mutual solid solubilities of zinc and cadmium
;
_journal_name_full               'British Journal of Applied Physics'
_journal_page_first              1291
_journal_page_last               1295
_journal_volume                  16
_journal_year                    1965
_chemical_formula_sum            'Cd0.961 Zn0.039'
_chemical_name_systematic        'Cd0.961 Zn0.039'
_space_group_IT_number           194
_symmetry_space_group_name_Hall  '-P 6c 2c'
_symmetry_space_group_name_H-M   'P 63/m m c'
_cell_angle_alpha                90
_cell_angle_beta                 90
_cell_angle_gamma                120
_cell_formula_units_Z            2
_cell_length_a                   2.9704
_cell_length_b                   2.9704
_cell_length_c                   5.6007
_cell_volume                     42.796
_citation_journal_id_ASTM        BJAPAJ
_cod_data_source_file            Owen_BJAPAJ_1965_722.cif
_cod_data_source_block           Cd0.961Zn0.039
_cod_original_cell_volume        42.79597
_cod_database_code               1525038
loop_
_symmetry_equiv_pos_as_xyz
x,y,z
x-y,x,z+1/2
-y,x-y,z
-x,-y,z+1/2
-x+y,-x,z
y,-x+y,z+1/2
-y,-x,-z+1/2
x-y,-y,-z
x,x-y,-z+1/2
y,x,-z
-x+y,y,-z+1/2
-x,-x+y,-z
-x,-y,-z
-x+y,-x,-z-1/2
y,-x+y,-z
x,y,-z-1/2
x-y,x,-z
-y,x-y,-z-1/2
y,x,z-1/2
-x+y,y,z
-x,-x+y,z-1/2
-y,-x,z
x-y,-y,z-1/2
x,x-y,z
loop_
_atom_site_label
_atom_site_type_symbol
_atom_site_fract_x
_atom_site_fract_y
_atom_site_fract_z
_atom_site_occupancy
_atom_site_U_iso_or_equiv
Zn1 Zn 0.3333 0.6667 0.25 0.039 0.0
Cd1 Cd 0.3333 0.6667 0.25 0.961 0.0
