#------------------------------------------------------------------------------
#$Date: 2015-07-11 23:15:57 +0300 (Sat, 11 Jul 2015) $
#$Revision: 146153 $
#$URL: svn://www.crystallography.net/cod/cif/1/52/52/1525231.cif $
#------------------------------------------------------------------------------
#
# This file is available in the Crystallography Open Database (COD),
# http://www.crystallography.net/
#
# All data on this site have been placed in the public domain by the
# contributors.
#
data_1525231
loop_
_publ_author_name
'Schubert, K.'
'Bhan, S.'
'Meissner, H.G.'
'Burkhardt, W.'
'Gohle, R.'
'Poetzschke, M.'
'Stolz, E.'
_publ_section_title
;
 Einige strukturelle Ergebnisse an metallischen Phasen (5)
;
_journal_name_full               Naturwissenschaften
_journal_page_first              303
_journal_page_last               303
_journal_volume                  47
_journal_year                    1960
_chemical_formula_sum            'Fe0.7 Ga0.3'
_chemical_name_systematic        '(Fe0.7 Ga0.3)'
_space_group_IT_number           194
_symmetry_space_group_name_Hall  '-P 6c 2c'
_symmetry_space_group_name_H-M   'P 63/m m c'
_cell_angle_alpha                90
_cell_angle_beta                 90
_cell_angle_gamma                120
_cell_formula_units_Z            2
_cell_length_a                   2.617
_cell_length_b                   2.617
_cell_length_c                   4.214
_cell_volume                     24.994
_citation_journal_id_ASTM        NATWAY
_cod_data_source_file            Schubert_NATWAY_1960_1909.cif
_cod_data_source_block           Fe0.7Ga0.3
_cod_original_cell_volume        24.99382
_cod_database_code               1525231
loop_
_symmetry_equiv_pos_as_xyz
x,y,z
x-y,x,z+1/2
-y,x-y,z
-x,-y,z+1/2
-x+y,-x,z
y,-x+y,z+1/2
-y,-x,-z+1/2
x-y,-y,-z
x,x-y,-z+1/2
y,x,-z
-x+y,y,-z+1/2
-x,-x+y,-z
-x,-y,-z
-x+y,-x,-z-1/2
y,-x+y,-z
x,y,-z-1/2
x-y,x,-z
-y,x-y,-z-1/2
y,x,z-1/2
-x+y,y,z
-x,-x+y,z-1/2
-y,-x,z
x-y,-y,z-1/2
x,x-y,z
loop_
_atom_site_label
_atom_site_type_symbol
_atom_site_fract_x
_atom_site_fract_y
_atom_site_fract_z
_atom_site_occupancy
_atom_site_U_iso_or_equiv
Ga1 Ga 0.3333 0.6667 0.25 0.3 0.0
Fe1 Fe 0.3333 0.6667 0.25 0.7 0.0
