#------------------------------------------------------------------------------
#$Date: 2015-07-11 23:18:27 +0300 (Sat, 11 Jul 2015) $
#$Revision: 146173 $
#$URL: svn://www.crystallography.net/cod/cif/1/52/52/1525249.cif $
#------------------------------------------------------------------------------
#
# This file is available in the Crystallography Open Database (COD),
# http://www.crystallography.net/
#
# All data on this site have been placed in the public domain by the
# contributors.
#
data_1525249
loop_
_publ_author_name
'Sharifrazi, P.'
'Mohanty, R.C.'
'Raman, A.'
_publ_section_title
;
 Intermediate phases in some rare earth - ruthenium systems
;
_journal_name_full               'Zeitschrift fuer Metallkunde'
_journal_page_first              801
_journal_page_last               805
_journal_volume                  75
_journal_year                    1984
_chemical_formula_sum            'Ce0.05 Ru0.95'
_chemical_name_systematic        '(Ce0.05 Ru0.95)'
_space_group_IT_number           194
_symmetry_space_group_name_Hall  '-P 6c 2c'
_symmetry_space_group_name_H-M   'P 63/m m c'
_cell_angle_alpha                90
_cell_angle_beta                 90
_cell_angle_gamma                120
_cell_formula_units_Z            2
_cell_length_a                   2.718
_cell_length_b                   2.718
_cell_length_c                   4.928
_cell_volume                     31.528
_citation_journal_id_ASTM        ZEMTAE
_cod_data_source_file            Sharifrazi_ZEMTAE_1984_881.cif
_cod_data_source_block           Ce0.05Ru0.95
_cod_original_cell_volume        31.52827
_cod_database_code               1525249
loop_
_symmetry_equiv_pos_as_xyz
x,y,z
x-y,x,z+1/2
-y,x-y,z
-x,-y,z+1/2
-x+y,-x,z
y,-x+y,z+1/2
-y,-x,-z+1/2
x-y,-y,-z
x,x-y,-z+1/2
y,x,-z
-x+y,y,-z+1/2
-x,-x+y,-z
-x,-y,-z
-x+y,-x,-z-1/2
y,-x+y,-z
x,y,-z-1/2
x-y,x,-z
-y,x-y,-z-1/2
y,x,z-1/2
-x+y,y,z
-x,-x+y,z-1/2
-y,-x,z
x-y,-y,z-1/2
x,x-y,z
loop_
_atom_site_label
_atom_site_type_symbol
_atom_site_fract_x
_atom_site_fract_y
_atom_site_fract_z
_atom_site_occupancy
_atom_site_U_iso_or_equiv
Ru1 Ru 0.3333 0.6667 0.25 0.95 0.0
Ce1 Ce 0.3333 0.6667 0.25 0.05 0.0
