#------------------------------------------------------------------------------
#$Date: 2016-02-13 21:28:24 +0200 (Sat, 13 Feb 2016) $
#$Revision: 176429 $
#$URL: svn://www.crystallography.net/cod/cif/1/52/54/1525428.cif $
#------------------------------------------------------------------------------
#
# This file is available in the Crystallography Open Database (COD),
# http://www.crystallography.net/
#
# All data on this site have been placed in the public domain by the
# contributors.
#
data_1525428
loop_
_publ_author_name
'Velge, W.A.J.J.'
'Buschow, K.H.J.'
_publ_section_title
;
 Magnetic and crystallographic properties of some rare earth cobalt
 compounds with Ca Zn5 structure
;
_journal_name_full               'Journal of Applied Physics'
_journal_page_first              1717
_journal_page_last               1720
_journal_volume                  39
_journal_year                    1968
_chemical_formula_sum            'Co5 Ho'
_chemical_name_systematic        'Co5 Ho'
_space_group_IT_number           191
_symmetry_space_group_name_Hall  '-P 6 2'
_symmetry_space_group_name_H-M   'P 6/m m m'
_cell_angle_alpha                90
_cell_angle_beta                 90
_cell_angle_gamma                120
_cell_formula_units_Z            1
_cell_length_a                   4.881
_cell_length_b                   4.881
_cell_length_c                   4.006
_cell_volume                     82.653
_citation_journal_id_ASTM        JAPIAU
_cod_data_source_file            Velge_JAPIAU_1968_1063.cif
_cod_data_source_block           Co5Ho1
_cod_original_cell_volume        82.65311
_cod_original_formula_sum        'Co5 Ho1'
_cod_database_code               1525428
loop_
_symmetry_equiv_pos_as_xyz
x,y,z
x-y,x,z
-y,x-y,z
-x,-y,z
-x+y,-x,z
y,-x+y,z
-y,-x,-z
x-y,-y,-z
x,x-y,-z
y,x,-z
-x+y,y,-z
-x,-x+y,-z
-x,-y,-z
-x+y,-x,-z
y,-x+y,-z
x,y,-z
x-y,x,-z
-y,x-y,-z
y,x,z
-x+y,y,z
-x,-x+y,z
-y,-x,z
x-y,-y,z
x,x-y,z
loop_
_atom_site_label
_atom_site_type_symbol
_atom_site_fract_x
_atom_site_fract_y
_atom_site_fract_z
_atom_site_occupancy
_atom_site_U_iso_or_equiv
Co2 Co 0.5 0 0.5 1 0.0
Ho1 Ho 0 0 0 1 0.0
Co1 Co 0.3333 0.6667 0 1 0.0
