#------------------------------------------------------------------------------
#$Date: 2015-07-11 22:41:23 +0300 (Sat, 11 Jul 2015) $
#$Revision: 145925 $
#$URL: svn://www.crystallography.net/cod/cif/1/52/50/1525036.cif $
#------------------------------------------------------------------------------
#
# This file is available in the Crystallography Open Database (COD),
# http://www.crystallography.net/
#
# All data on this site have been placed in the public domain by the
# contributors.
#
data_1525036
loop_
_publ_author_name
'Ostertag, W.'
_publ_section_title
;
 The crystal structure of Er2 Co7 and other rare earth-cobalt compounds
 with R2 Co7 (R= Gd, Tb, Dy, Ho, Tm, Lu, Y)
;
_journal_name_full               'Journal of the Less-Common Metals'
_journal_page_first              385
_journal_page_last               390
_journal_volume                  13
_journal_year                    1967
_chemical_formula_sum            'Co7 Er2'
_chemical_name_systematic        'Co7 Er2'
_space_group_IT_number           166
_symmetry_space_group_name_Hall  '-R 3 2"'
_symmetry_space_group_name_H-M   'R -3 m :H'
_cell_angle_alpha                90
_cell_angle_beta                 90
_cell_angle_gamma                120
_cell_formula_units_Z            6
_cell_length_a                   4.973
_cell_length_b                   4.973
_cell_length_c                   36.11
_cell_volume                     773.384
_citation_journal_id_ASTM        JCOMAH
_cod_data_source_file            Ostertag_JCOMAH_1967_952.cif
_cod_data_source_block           Co7Er2
_cod_original_cell_volume        773.3838
_cod_database_code               1525036
loop_
_symmetry_equiv_pos_as_xyz
x,y,z
-y,x-y,z
-x+y,-x,z
y,x,-z
-x,-x+y,-z
x-y,-y,-z
-x,-y,-z
y,-x+y,-z
x-y,x,-z
-y,-x,z
x,x-y,z
-x+y,y,z
x+2/3,y+1/3,z+1/3
-y+2/3,x-y+1/3,z+1/3
-x+y+2/3,-x+1/3,z+1/3
y+2/3,x+1/3,-z+1/3
-x+2/3,-x+y+1/3,-z+1/3
x-y+2/3,-y+1/3,-z+1/3
-x+2/3,-y+1/3,-z+1/3
y+2/3,-x+y+1/3,-z+1/3
x-y+2/3,x+1/3,-z+1/3
-y+2/3,-x+1/3,z+1/3
x+2/3,x-y+1/3,z+1/3
-x+y+2/3,y+1/3,z+1/3
x+1/3,y+2/3,z+2/3
-y+1/3,x-y+2/3,z+2/3
-x+y+1/3,-x+2/3,z+2/3
y+1/3,x+2/3,-z+2/3
-x+1/3,-x+y+2/3,-z+2/3
x-y+1/3,-y+2/3,-z+2/3
-x+1/3,-y+2/3,-z+2/3
y+1/3,-x+y+2/3,-z+2/3
x-y+1/3,x+2/3,-z+2/3
-y+1/3,-x+2/3,z+2/3
x+1/3,x-y+2/3,z+2/3
-x+y+1/3,y+2/3,z+2/3
loop_
_atom_site_label
_atom_site_type_symbol
_atom_site_fract_x
_atom_site_fract_y
_atom_site_fract_z
_atom_site_occupancy
_atom_site_U_iso_or_equiv
Er2 Er 0 0 0.146 1 0.0
Co5 Co 0.5 0.5 0.1117 1 0.0
Co2 Co 0 0 0.2783 1 0.0
Co4 Co 0.5 0 0 1 0.0
Co3 Co 0 0 0.3883 1 0.0
Co1 Co 0 0 0.5 1 0.0
Er1 Er 0 0 0.052 1 0.0
