#------------------------------------------------------------------------------
#$Date: 2016-02-13 21:28:24 +0200 (Sat, 13 Feb 2016) $
#$Revision: 176429 $
#$URL: svn://www.crystallography.net/cod/cif/1/52/53/1525358.cif $
#------------------------------------------------------------------------------
#
# This file is available in the Crystallography Open Database (COD),
# http://www.crystallography.net/
#
# All data on this site have been placed in the public domain by the
# contributors.
#
data_1525358
loop_
_publ_author_name
'Suzuki, T.'
'Oya, Y.'
'Ochiai, S.'
_publ_section_title
;
 The mechanical behaviour of nonstoichiometric compounds Ni3 Si, Ni3 Ge,
 and Ni3 Ga
;
_journal_name_full
;
Metallurgical Transactions A: Physical Metallurgy and Materials Science
;
_journal_page_first              173
_journal_page_last               181
_journal_volume                  15
_journal_year                    1984
_chemical_formula_sum            'Fe3 Ga'
_chemical_name_systematic        'Fe3 Ga'
_space_group_IT_number           221
_symmetry_space_group_name_Hall  '-P 4 2 3'
_symmetry_space_group_name_H-M   'P m -3 m'
_cell_angle_alpha                90
_cell_angle_beta                 90
_cell_angle_gamma                90
_cell_formula_units_Z            1
_cell_length_a                   3.679
_cell_length_b                   3.679
_cell_length_c                   3.679
_cell_volume                     49.795
_citation_journal_id_ASTM        MTTABN
_cod_data_source_file            Suzuki_MTTABN_1984_1907.cif
_cod_data_source_block           Fe3Ga1
_cod_original_cell_volume        49.79541
_cod_original_formula_sum        'Fe3 Ga1'
_cod_database_code               1525358
loop_
_symmetry_equiv_pos_as_xyz
x,y,z
-y,x,z
-x,-y,z
y,-x,z
x,-y,-z
y,x,-z
-x,y,-z
-y,-x,-z
z,x,y
-x,z,y
-z,-x,y
x,-z,y
z,-x,-y
x,z,-y
-z,x,-y
-x,-z,-y
y,z,x
y,-z,-x
z,y,-x
-y,z,-x
-z,-y,-x
-y,-z,x
z,-y,x
-z,y,x
-x,-y,-z
y,-x,-z
x,y,-z
-y,x,-z
-x,y,z
-y,-x,z
x,-y,z
y,x,z
-z,-x,-y
x,-z,-y
z,x,-y
-x,z,-y
-z,x,y
-x,-z,y
z,-x,y
x,z,y
-y,-z,-x
-y,z,x
-z,-y,x
y,-z,x
z,y,x
y,z,-x
-z,y,-x
z,-y,-x
loop_
_atom_site_label
_atom_site_type_symbol
_atom_site_fract_x
_atom_site_fract_y
_atom_site_fract_z
_atom_site_occupancy
_atom_site_U_iso_or_equiv
Fe1 Fe 0 0.5 0.5 1 0.0
Ga1 Ga 0 0 0 1 0.0
