#------------------------------------------------------------------------------
#$Date: 2016-02-13 21:28:24 +0200 (Sat, 13 Feb 2016) $
#$Revision: 176429 $
#$URL: svn://www.crystallography.net/cod/cif/1/52/51/1525127.cif $
#------------------------------------------------------------------------------
#
# This file is available in the Crystallography Open Database (COD),
# http://www.crystallography.net/
#
# All data on this site have been placed in the public domain by the
# contributors.
#
data_1525127
loop_
_publ_author_name
'Rajeswari, H.'
'Manohar, H.'
_publ_section_title
;
 Crystal symmetry and cell parameters of the ordered phase of Co3 Sn2
;
_journal_name_full               'Indian Journal for Pure and Applied Physics'
_journal_page_first              363
_journal_page_last               364
_journal_volume                  8
_journal_year                    1970
_chemical_formula_sum            'Co2 Sn'
_chemical_name_systematic        'Co2 Sn'
_space_group_IT_number           194
_symmetry_space_group_name_Hall  '-P 6c 2c'
_symmetry_space_group_name_H-M   'P 63/m m c'
_cell_angle_alpha                90
_cell_angle_beta                 90
_cell_angle_gamma                120
_cell_formula_units_Z            2
_cell_length_a                   4.109
_cell_length_b                   4.109
_cell_length_c                   5.18
_cell_volume                     75.741
_citation_journal_id_ASTM        IJOPAU
_cod_data_source_file            Rajeswari_IJOPAU_1970_1224.cif
_cod_data_source_block           Co2Sn1
_cod_original_cell_volume        75.74129
_cod_original_formula_sum        'Co2 Sn1'
_cod_database_code               1525127
loop_
_symmetry_equiv_pos_as_xyz
x,y,z
x-y,x,z+1/2
-y,x-y,z
-x,-y,z+1/2
-x+y,-x,z
y,-x+y,z+1/2
-y,-x,-z+1/2
x-y,-y,-z
x,x-y,-z+1/2
y,x,-z
-x+y,y,-z+1/2
-x,-x+y,-z
-x,-y,-z
-x+y,-x,-z-1/2
y,-x+y,-z
x,y,-z-1/2
x-y,x,-z
-y,x-y,-z-1/2
y,x,z-1/2
-x+y,y,z
-x,-x+y,z-1/2
-y,-x,z
x-y,-y,z-1/2
x,x-y,z
loop_
_atom_site_label
_atom_site_type_symbol
_atom_site_fract_x
_atom_site_fract_y
_atom_site_fract_z
_atom_site_occupancy
_atom_site_U_iso_or_equiv
Sn1 Sn 0.3333 0.6667 0.25 1 0.0
Co2 Co 0.3333 0.6667 0.75 1 0.0
Co1 Co 0 0 0 1 0.0
