#------------------------------------------------------------------------------
#$Date: 2015-07-11 22:57:38 +0300 (Sat, 11 Jul 2015) $
#$Revision: 146031 $
#$URL: svn://www.crystallography.net/cod/cif/1/52/51/1525133.cif $
#------------------------------------------------------------------------------
#
# This file is available in the Crystallography Open Database (COD),
# http://www.crystallography.net/
#
# All data on this site have been placed in the public domain by the
# contributors.
#
data_1525133
loop_
_publ_author_name
'Raman, A.'
'Ghassem, H.'
_publ_section_title
;
 Characteristics of the Mn5 Si3-, Ca Zn5- and C6 Ni3-type phases
;
_journal_name_full               'Journal of the Less-Common Metals'
_journal_page_first              185
_journal_page_last               197
_journal_volume                  30
_journal_year                    1973
_chemical_formula_sum            'Er5 Rh3'
_chemical_name_systematic        'Er5 Rh3'
_space_group_IT_number           193
_symmetry_space_group_name_Hall  '-P 6c 2'
_symmetry_space_group_name_H-M   'P 63/m c m'
_cell_angle_alpha                90
_cell_angle_beta                 90
_cell_angle_gamma                120
_cell_formula_units_Z            2
_cell_length_a                   8.084
_cell_length_b                   8.084
_cell_length_c                   6.306
_cell_volume                     356.892
_citation_journal_id_ASTM        JCOMAH
_cod_data_source_file            Raman_JCOMAH_1973_1775.cif
_cod_data_source_block           Er5Rh3
_cod_original_cell_volume        356.8923
_cod_database_code               1525133
loop_
_symmetry_equiv_pos_as_xyz
x,y,z
x-y,x,z+1/2
-y,x-y,z
-x,-y,z+1/2
-x+y,-x,z
y,-x+y,z+1/2
-y,-x,-z
x-y,-y,-z+1/2
x,x-y,-z
y,x,-z+1/2
-x+y,y,-z
-x,-x+y,-z+1/2
-x,-y,-z
-x+y,-x,-z-1/2
y,-x+y,-z
x,y,-z-1/2
x-y,x,-z
-y,x-y,-z-1/2
y,x,z
-x+y,y,z-1/2
-x,-x+y,z
-y,-x,z-1/2
x-y,-y,z
x,x-y,z-1/2
loop_
_atom_site_label
_atom_site_type_symbol
_atom_site_fract_x
_atom_site_fract_y
_atom_site_fract_z
_atom_site_occupancy
_atom_site_U_iso_or_equiv
Er2 Er 0.2439 0 0.25 1 0.0
Rh1 Rh 0.6003 0 0.25 1 0.0
Er1 Er 0.3333 0.6667 0 1 0.0
