#------------------------------------------------------------------------------
#$Date: 2016-03-25 22:31:57 +0200 (Fri, 25 Mar 2016) $
#$Revision: 180014 $
#$URL: svn://www.crystallography.net/cod/cif/7/03/08/7030892.cif $
#------------------------------------------------------------------------------
#
# This file is available in the Crystallography Open Database (COD),
# http://www.crystallography.net/
#
# All data on this site have been placed in the public domain by the
# contributors.
#
data_7030892
loop_
_publ_author_name
'F\"assler, Thomas F'
'Zeilinger, Michael'
_publ_section_title
;
 Structural and Thermodynamic Similarities of Phases in the Li--Tt (Tt =
 Si, Ge) Systems: Redetermination of the Lithium-Rich Side of the Li--Ge
 Phase Diagram and Crystal Structures of Li17Si4.0&#x2212;xGex for x =
 2.3, 3.1, 3.5, and 4 as well as Li4.1Ge
;
_journal_name_full               'Dalton Transactions'
_journal_paper_doi               10.1039/c4dt00743c
_journal_year                    2014
_chemical_formula_analytical     'Ge4 Li17'
_chemical_formula_moiety         'Ge4 Li17'
_chemical_formula_sum            'Ge4 Li17'
_chemical_formula_weight         408.34
_chemical_melting_point          '795 K, peritectic decomposition'
_chemical_name_common            'Lithium Germanide'
_chemical_name_systematic
; 
 ? 
;
_space_group_IT_number           216
_symmetry_cell_setting           cubic
_symmetry_Int_Tables_number      216
_symmetry_space_group_name_Hall  'F -4 2 3'
_symmetry_space_group_name_H-M   'F -4 3 m'
_atom_sites_solution_primary     direct
_atom_sites_solution_secondary   difmap
_audit_creation_method           SHELXL-97
_cell_angle_alpha                90.00
_cell_angle_beta                 90.00
_cell_angle_gamma                90.00
_cell_formula_units_Z            20
_cell_length_a                   18.8521(3)
_cell_length_b                   18.8521(3)
_cell_length_c                   18.8521(3)
_cell_measurement_reflns_used    9893
_cell_measurement_temperature    298(2)
_cell_measurement_theta_max      48.2820
_cell_measurement_theta_min      3.0563
_cell_volume                     6700.07(18)
_citation_year                   2014
_computing_cell_refinement
'SAINT Version 7.56a, Bruker AXS Inc., Madison, Wisconsin, USA, 2008. '
_computing_data_collection
;APEX suite of crystallographic software. APEX 2 Version 2008.4,
 Bruker AXS Inc., Madison, Wisconsin, USA, 2008.
;
_computing_data_reduction
'SAINT Version 7.56a, Bruker AXS Inc., Madison, Wisconsin, USA, 2008. '
_computing_molecular_graphics    'Diamond 3.2i (Crystal Impact 2012)'
_computing_publication_material  'SHELXL-97 (Sheldrick, 1997)'
_computing_structure_refinement  'SHELXL-97 (Sheldrick, 1997)'
_computing_structure_solution    'SHELXS-97 (Sheldrick, 1997)'
_diffrn_ambient_temperature      298(2)
_diffrn_detector                 'CCD plate'
_diffrn_detector_area_resol_mean 16
_diffrn_measured_fraction_theta_full 0.999
_diffrn_measured_fraction_theta_max 0.999
_diffrn_measurement_device_type  'Bruker APEX-II CCD'
_diffrn_measurement_method       'phi- and omega-rotation'
_diffrn_radiation_monochromator  graphite
_diffrn_radiation_source         'fine-focus sealed tube'
_diffrn_radiation_type           MoK\a
_diffrn_radiation_wavelength     0.71073
_diffrn_reflns_av_R_equivalents  0.0474
_diffrn_reflns_av_sigmaI/netI    0.0166
_diffrn_reflns_limit_h_max       23
_diffrn_reflns_limit_h_min       -37
_diffrn_reflns_limit_k_max       30
_diffrn_reflns_limit_k_min       -37
_diffrn_reflns_limit_l_max       37
_diffrn_reflns_limit_l_min       -37
_diffrn_reflns_number            67542
_diffrn_reflns_theta_full        45.26
_diffrn_reflns_theta_max         45.26
_diffrn_reflns_theta_min         1.87
_exptl_absorpt_coefficient_mu    8.832
_exptl_absorpt_correction_T_max  0.3286
_exptl_absorpt_correction_T_min  0.1235
_exptl_absorpt_correction_type   multi-scan
_exptl_absorpt_process_details   'SADABS, Bruker, 2008b'
_exptl_crystal_colour            'metallic silver'
_exptl_crystal_density_diffrn    2.024
_exptl_crystal_density_meas      ?
_exptl_crystal_density_method    'not measured'
_exptl_crystal_description       block
_exptl_crystal_F_000             3580
_exptl_crystal_size_max          0.40
_exptl_crystal_size_mid          0.40
_exptl_crystal_size_min          0.35
_refine_diff_density_max         0.460
_refine_diff_density_min         -0.687
_refine_diff_density_rms         0.095
_refine_ls_abs_structure_details 'Flack H D (1983), Acta Cryst. A39, 876-881'
_refine_ls_abs_structure_Flack   0.50(3)
_refine_ls_extinction_coef       0.000159(9)
_refine_ls_extinction_expression Fc^*^=kFc[1+0.001xFc^2^\l^3^/sin(2\q)]^-1/4^
_refine_ls_extinction_method     SHELXL
_refine_ls_goodness_of_fit_ref   1.106
_refine_ls_matrix_type           full
_refine_ls_number_parameters     68
_refine_ls_number_reflns         2757
_refine_ls_number_restraints     0
_refine_ls_restrained_S_all      1.106
_refine_ls_R_factor_all          0.0220
_refine_ls_R_factor_gt           0.0183
_refine_ls_shift/su_max          0.002
_refine_ls_shift/su_mean         0.000
_refine_ls_structure_factor_coef Fsqd
_refine_ls_weighting_details
'calc w=1/[\s^2^(Fo^2^)+(0.0129P)^2^+4.9450P] where P=(Fo^2^+2Fc^2^)/3'
_refine_ls_weighting_scheme      calc
_refine_ls_wR_factor_gt          0.0368
_refine_ls_wR_factor_ref         0.0376
_reflns_number_gt                2547
_reflns_number_total             2757
_reflns_threshold_expression     >2sigma(I)
_cod_data_source_file            c4dt00743c2.cif
_cod_data_source_block           Li17Ge4_RT
_cod_depositor_comments
;
The following automatic conversions were performed:

'_exptl_crystal_density_meas' value 'not measured' was changed to '?'
- the value is perceived as not measured.

Automatic conversion script
Id: cif_fix_values 3008 2015-01-20 13:52:24Z robertas 
;
_cod_database_code               7030892
loop_
_symmetry_equiv_pos_as_xyz
'x, y, z'
'-x, -y, z'
'-x, y, -z'
'x, -y, -z'
'z, x, y'
'z, -x, -y'
'-z, -x, y'
'-z, x, -y'
'y, z, x'
'-y, z, -x'
'y, -z, -x'
'-y, -z, x'
'y, x, z'
'-y, -x, z'
'y, -x, -z'
'-y, x, -z'
'x, z, y'
'-x, z, -y'
'-x, -z, y'
'x, -z, -y'
'z, y, x'
'z, -y, -x'
'-z, y, -x'
'-z, -y, x'
'x, y+1/2, z+1/2'
'-x, -y+1/2, z+1/2'
'-x, y+1/2, -z+1/2'
'x, -y+1/2, -z+1/2'
'z, x+1/2, y+1/2'
'z, -x+1/2, -y+1/2'
'-z, -x+1/2, y+1/2'
'-z, x+1/2, -y+1/2'
'y, z+1/2, x+1/2'
'-y, z+1/2, -x+1/2'
'y, -z+1/2, -x+1/2'
'-y, -z+1/2, x+1/2'
'y, x+1/2, z+1/2'
'-y, -x+1/2, z+1/2'
'y, -x+1/2, -z+1/2'
'-y, x+1/2, -z+1/2'
'x, z+1/2, y+1/2'
'-x, z+1/2, -y+1/2'
'-x, -z+1/2, y+1/2'
'x, -z+1/2, -y+1/2'
'z, y+1/2, x+1/2'
'z, -y+1/2, -x+1/2'
'-z, y+1/2, -x+1/2'
'-z, -y+1/2, x+1/2'
'x+1/2, y, z+1/2'
'-x+1/2, -y, z+1/2'
'-x+1/2, y, -z+1/2'
'x+1/2, -y, -z+1/2'
'z+1/2, x, y+1/2'
'z+1/2, -x, -y+1/2'
'-z+1/2, -x, y+1/2'
'-z+1/2, x, -y+1/2'
'y+1/2, z, x+1/2'
'-y+1/2, z, -x+1/2'
'y+1/2, -z, -x+1/2'
'-y+1/2, -z, x+1/2'
'y+1/2, x, z+1/2'
'-y+1/2, -x, z+1/2'
'y+1/2, -x, -z+1/2'
'-y+1/2, x, -z+1/2'
'x+1/2, z, y+1/2'
'-x+1/2, z, -y+1/2'
'-x+1/2, -z, y+1/2'
'x+1/2, -z, -y+1/2'
'z+1/2, y, x+1/2'
'z+1/2, -y, -x+1/2'
'-z+1/2, y, -x+1/2'
'-z+1/2, -y, x+1/2'
'x+1/2, y+1/2, z'
'-x+1/2, -y+1/2, z'
'-x+1/2, y+1/2, -z'
'x+1/2, -y+1/2, -z'
'z+1/2, x+1/2, y'
'z+1/2, -x+1/2, -y'
'-z+1/2, -x+1/2, y'
'-z+1/2, x+1/2, -y'
'y+1/2, z+1/2, x'
'-y+1/2, z+1/2, -x'
'y+1/2, -z+1/2, -x'
'-y+1/2, -z+1/2, x'
'y+1/2, x+1/2, z'
'-y+1/2, -x+1/2, z'
'y+1/2, -x+1/2, -z'
'-y+1/2, x+1/2, -z'
'x+1/2, z+1/2, y'
'-x+1/2, z+1/2, -y'
'-x+1/2, -z+1/2, y'
'x+1/2, -z+1/2, -y'
'z+1/2, y+1/2, x'
'z+1/2, -y+1/2, -x'
'-z+1/2, y+1/2, -x'
'-z+1/2, -y+1/2, x'
loop_
_atom_site_label
_atom_site_type_symbol
_atom_site_fract_x
_atom_site_fract_y
_atom_site_fract_z
_atom_site_U_iso_or_equiv
_atom_site_adp_type
_atom_site_occupancy
_atom_site_symmetry_multiplicity
_atom_site_calc_flag
_atom_site_refinement_flags
Ge1 Ge 0.159545(8) 0.159545(8) 0.159545(8) 0.01303(4) Uani 1 6 d S
Ge2 Ge 0.916568(8) 0.916568(8) 0.916568(8) 0.01137(4) Uani 1 6 d S
Ge3 Ge 0.321020(12) 0.0000 0.0000 0.01327(5) Uani 1 4 d S
Ge4 Ge 0.570154(10) 0.2500 0.2500 0.01306(4) Uani 1 4 d S
Li1 Li 0.0734(2) 0.0734(2) 0.0734(2) 0.0309(13) Uani 1 6 d S
Li2 Li 0.30311(16) 0.30311(16) 0.30311(16) 0.0216(8) Uani 1 6 d S
Li3 Li 0.41745(19) 0.41745(19) 0.41745(19) 0.0223(9) Uani 1 6 d S
Li4 Li 0.55754(18) 0.55754(18) 0.55754(18) 0.0229(10) Uani 1 6 d S
Li5 Li 0.68773(19) 0.68773(19) 0.68773(19) 0.0280(11) Uani 1 6 d S
Li6 Li 0.8314(2) 0.8314(2) 0.8314(2) 0.0269(13) Uani 1 6 d S
Li7 Li 0.1677(3) 0.0000 0.0000 0.0253(11) Uani 1 4 d S
Li8 Li 0.0743(3) 0.2500 0.2500 0.0231(9) Uani 1 4 d S
Li9 Li 0.09127(16) 0.09127(16) 0.2624(2) 0.0320(9) Uani 1 2 d S
Li10 Li 0.08962(17) 0.08962(17) 0.76123(19) 0.0311(9) Uani 1 2 d S
Li11 Li 0.15466(14) 0.15466(14) 0.5205(2) 0.0325(8) Uani 1 2 d S
Li12 Li 0.16369(11) 0.16369(11) 0.0027(2) 0.0225(8) Uani 1 2 d S
Li13 Li 0.0000 0.0000 0.0000 0.0167(18) Uani 1 24 d S
loop_
_atom_site_aniso_label
_atom_site_aniso_U_11
_atom_site_aniso_U_22
_atom_site_aniso_U_33
_atom_site_aniso_U_23
_atom_site_aniso_U_13
_atom_site_aniso_U_12
Ge1 0.01303(4) 0.01303(4) 0.01303(4) 0.00038(4) 0.00038(4) 0.00038(4)
Ge2 0.01137(4) 0.01137(4) 0.01137(4) -0.00056(4) -0.00056(4) -0.00056(4)
Ge3 0.01222(8) 0.01380(5) 0.01380(5) -0.00112(6) 0.000 0.000
Ge4 0.01246(8) 0.01337(5) 0.01337(5) 0.00114(6) 0.000 0.000
Li1 0.0309(13) 0.0309(13) 0.0309(13) -0.0015(14) -0.0015(14) -0.0015(14)
Li2 0.0216(8) 0.0216(8) 0.0216(8) 0.0026(10) 0.0026(10) 0.0026(10)
Li3 0.0223(9) 0.0223(9) 0.0223(9) 0.0002(11) 0.0002(11) 0.0002(11)
Li4 0.0229(10) 0.0229(10) 0.0229(10) 0.0076(12) 0.0076(12) 0.0076(12)
Li5 0.0280(11) 0.0280(11) 0.0280(11) 0.0012(12) 0.0012(12) 0.0012(12)
Li6 0.0269(13) 0.0269(13) 0.0269(13) -0.0016(12) -0.0016(12) -0.0016(12)
Li7 0.022(2) 0.0270(14) 0.0270(14) 0.001(2) 0.000 0.000
Li8 0.0212(19) 0.0241(14) 0.0241(14) -0.0073(18) 0.000 0.000
Li9 0.0322(13) 0.0322(13) 0.0317(17) 0.0074(9) 0.0074(9) -0.0083(15)
Li10 0.0340(13) 0.0340(13) 0.0254(15) 0.0021(8) 0.0021(8) -0.0087(17)
Li11 0.0323(11) 0.0323(11) 0.0328(18) -0.0019(10) -0.0019(10) -0.0056(14)
Li12 0.0199(9) 0.0199(9) 0.0277(15) 0.0020(9) 0.0020(9) -0.0064(11)
Li13 0.0167(18) 0.0167(18) 0.0167(18) 0.000 0.000 0.000
loop_
_atom_type_symbol
_atom_type_description
_atom_type_scat_dispersion_real
_atom_type_scat_dispersion_imag
_atom_type_scat_source
Li Li -0.0003 0.0001 'International Tables Vol C Tables 4.2.6.8 and 6.1.1.4'
Ge Ge 0.1547 1.8001 'International Tables Vol C Tables 4.2.6.8 and 6.1.1.4'
loop_
_geom_angle_atom_site_label_1
_geom_angle_atom_site_label_2
_geom_angle_atom_site_label_3
_geom_angle
_geom_angle_site_symmetry_1
_geom_angle_site_symmetry_3
Li9 Ge1 Li9 118.13(5) . 9
Li9 Ge1 Li9 118.13(5) . 5
Li9 Ge1 Li9 118.13(5) 9 5
Li9 Ge1 Li1 82.07(10) . .
Li9 Ge1 Li1 82.07(10) 9 .
Li9 Ge1 Li1 82.07(10) 5 .
Li9 Ge1 Li2 113.23(9) . 28
Li9 Ge1 Li2 113.23(9) 9 28
Li9 Ge1 Li2 63.39(14) 5 28
Li1 Ge1 Li2 145.46(10) . 28
Li9 Ge1 Li2 63.39(14) . 74
Li9 Ge1 Li2 113.23(9) 9 74
Li9 Ge1 Li2 113.23(9) 5 74
Li1 Ge1 Li2 145.46(10) . 74
Li2 Ge1 Li2 58.82(16) 28 74
Li9 Ge1 Li2 113.23(9) . 51
Li9 Ge1 Li2 63.39(14) 9 51
Li9 Ge1 Li2 113.23(9) 5 51
Li1 Ge1 Li2 145.46(10) . 51
Li2 Ge1 Li2 58.82(16) 28 51
Li2 Ge1 Li2 58.82(16) 74 51
Li9 Ge1 Li8 166.89(12) . 9
Li9 Ge1 Li8 65.63(6) 9 9
Li9 Ge1 Li8 65.63(6) 5 9
Li1 Ge1 Li8 111.05(9) . 9
Li2 Ge1 Li8 55.91(7) 28 9
Li2 Ge1 Li8 103.50(13) 74 9
Li2 Ge1 Li8 55.91(7) 51 9
Li9 Ge1 Li8 65.63(6) . 5
Li9 Ge1 Li8 166.89(12) 9 5
Li9 Ge1 Li8 65.63(6) 5 5
Li1 Ge1 Li8 111.05(9) . 5
Li2 Ge1 Li8 55.91(7) 28 5
Li2 Ge1 Li8 55.91(7) 74 5
Li2 Ge1 Li8 103.50(13) 51 5
Li8 Ge1 Li8 107.85(9) 9 5
Li9 Ge1 Li8 65.63(6) . .
Li9 Ge1 Li8 65.63(6) 9 .
Li9 Ge1 Li8 166.89(12) 5 .
Li1 Ge1 Li8 111.05(9) . .
Li2 Ge1 Li8 103.50(13) 28 .
Li2 Ge1 Li8 55.92(7) 74 .
Li2 Ge1 Li8 55.92(7) 51 .
Li8 Ge1 Li8 107.85(9) 9 .
Li8 Ge1 Li8 107.85(9) 5 .
Li9 Ge1 Li12 60.65(6) . 9
Li9 Ge1 Li12 138.94(11) 9 9
Li9 Ge1 Li12 60.65(6) 5 9
Li1 Ge1 Li12 56.88(6) . 9
Li2 Ge1 Li12 102.28(8) 28 9
Li2 Ge1 Li12 102.28(8) 74 9
Li2 Ge1 Li12 157.67(12) 51 9
Li8 Ge1 Li12 125.95(4) 9 9
Li8 Ge1 Li12 54.17(9) 5 9
Li8 Ge1 Li12 125.95(4) . 9
Li9 Ge1 Li12 60.65(6) . 5
Li9 Ge1 Li12 60.65(6) 9 5
Li9 Ge1 Li12 138.94(11) 5 5
Li1 Ge1 Li12 56.88(6) . 5
Li2 Ge1 Li12 157.67(12) 28 5
Li2 Ge1 Li12 102.28(8) 74 5
Li2 Ge1 Li12 102.28(8) 51 5
Li8 Ge1 Li12 125.95(4) 9 5
Li8 Ge1 Li12 125.95(4) 5 5
Li8 Ge1 Li12 54.17(9) . 5
Li12 Ge1 Li12 92.99(8) 9 5
Li12 Ge2 Li12 111.33(7) 10_666 6_666
Li12 Ge2 Li12 111.33(7) 10_666 2_666
Li12 Ge2 Li12 111.33(7) 6_666 2_666
Li12 Ge2 Li13 107.54(8) 10_666 1_666
Li12 Ge2 Li13 107.54(8) 6_666 1_666
Li12 Ge2 Li13 107.54(8) 2_666 1_666
Li12 Ge2 Li7 69.44(6) 10_666 10_666
Li12 Ge2 Li7 69.44(6) 6_666 10_666
Li12 Ge2 Li7 178.35(11) 2_666 10_666
Li13 Ge2 Li7 70.81(9) 1_666 10_666
Li12 Ge2 Li7 69.44(6) 10_666 2_666
Li12 Ge2 Li7 178.35(12) 6_666 2_666
Li12 Ge2 Li7 69.44(6) 2_666 2_666
Li13 Ge2 Li7 70.81(9) 1_666 2_666
Li7 Ge2 Li7 109.75(9) 10_666 2_666
Li12 Ge2 Li7 178.35(12) 10_666 6_666
Li12 Ge2 Li7 69.44(6) 6_666 6_666
Li12 Ge2 Li7 69.44(6) 2_666 6_666
Li13 Ge2 Li7 70.81(9) 1_666 6_666
Li7 Ge2 Li7 109.75(9) 10_666 6_666
Li7 Ge2 Li7 109.75(9) 2_666 6_666
Li12 Ge2 Li6 72.46(8) 10_666 .
Li12 Ge2 Li6 72.46(8) 6_666 .
Li12 Ge2 Li6 72.46(8) 2_666 .
Li13 Ge2 Li6 180.00(6) 1_666 .
Li7 Ge2 Li6 109.19(9) 10_666 .
Li7 Ge2 Li6 109.19(9) 2_666 .
Li7 Ge2 Li6 109.19(9) 6_666 .
Li12 Ge2 Li10 55.89(4) 10_666 2_665
Li12 Ge2 Li10 55.89(5) 6_666 2_665
Li12 Ge2 Li10 123.96(11) 2_666 2_665
Li13 Ge2 Li10 128.49(9) 1_666 2_665
Li7 Ge2 Li10 57.68(12) 10_666 2_665
Li7 Ge2 Li10 125.04(5) 2_666 2_665
Li7 Ge2 Li10 125.04(5) 6_666 2_665
Li6 Ge2 Li10 51.51(9) . 2_665
Li12 Ge2 Li10 55.89(5) 10_666 6_566
Li12 Ge2 Li10 123.96(11) 6_666 6_566
Li12 Ge2 Li10 55.89(5) 2_666 6_566
Li13 Ge2 Li10 128.49(9) 1_666 6_566
Li7 Ge2 Li10 125.04(5) 10_666 6_566
Li7 Ge2 Li10 57.68(12) 2_666 6_566
Li7 Ge2 Li10 125.04(5) 6_666 6_566
Li6 Ge2 Li10 51.51(9) . 6_566
Li10 Ge2 Li10 85.35(13) 2_665 6_566
Li12 Ge2 Li10 123.96(11) 10_666 10_656
Li12 Ge2 Li10 55.89(5) 6_666 10_656
Li12 Ge2 Li10 55.89(4) 2_666 10_656
Li13 Ge2 Li10 128.49(9) 1_666 10_656
Li7 Ge2 Li10 125.04(5) 10_666 10_656
Li7 Ge2 Li10 125.04(5) 2_666 10_656
Li7 Ge2 Li10 57.68(12) 6_666 10_656
Li6 Ge2 Li10 51.51(9) . 10_656
Li10 Ge2 Li10 85.35(13) 2_665 10_656
Li10 Ge2 Li10 85.35(13) 6_566 10_656
Li12 Ge2 Li1 123.94(5) 10_666 4_666
Li12 Ge2 Li1 57.97(15) 6_666 4_666
Li12 Ge2 Li1 123.94(5) 2_666 4_666
Li13 Ge2 Li1 49.57(12) 1_666 4_666
Li7 Ge2 Li1 55.06(5) 10_666 4_666
Li7 Ge2 Li1 120.38(17) 2_666 4_666
Li7 Ge2 Li1 55.06(5) 6_666 4_666
Li6 Ge2 Li1 130.43(12) . 4_666
Li10 Ge2 Li1 96.07(9) 2_665 4_666
Li10 Ge2 Li1 178.07(18) 6_566 4_666
Li10 Ge2 Li1 96.07(9) 10_656 4_666
Li9 Ge3 Li9 131.13(19) 6 5
Li9 Ge3 Li4 110.10(8) 6 27_645
Li9 Ge3 Li4 110.10(8) 5 27_645
Li9 Ge3 Li4 110.10(8) 6 26_654
Li9 Ge3 Li4 110.10(8) 5 26_654
Li4 Ge3 Li4 67.6(2) 27_645 26_654
Li9 Ge3 Li10 76.99(6) 6 8_655
Li9 Ge3 Li10 76.99(6) 5 8_655
Li4 Ge3 Li10 89.16(15) 27_645 8_655
Li4 Ge3 Li10 156.80(14) 26_654 8_655
Li9 Ge3 Li10 76.99(6) 6 7_655
Li9 Ge3 Li10 76.99(6) 5 7_655
Li4 Ge3 Li10 156.80(14) 27_645 7_655
Li4 Ge3 Li10 89.16(15) 26_654 7_655
Li10 Ge3 Li10 114.04(15) 8_655 7_655
Li9 Ge3 Li3 164.88(16) 6 28
Li9 Ge3 Li3 63.99(14) 5 28
Li4 Ge3 Li3 58.06(11) 27_645 28
Li4 Ge3 Li3 58.06(11) 26_654 28
Li10 Ge3 Li3 110.28(7) 8_655 28
Li10 Ge3 Li3 110.28(7) 7_655 28
Li9 Ge3 Li3 63.99(14) 6 25_544
Li9 Ge3 Li3 164.88(16) 5 25_544
Li4 Ge3 Li3 58.06(11) 27_645 25_544
Li4 Ge3 Li3 58.06(11) 26_654 25_544
Li10 Ge3 Li3 110.28(7) 8_655 25_544
Li10 Ge3 Li3 110.28(7) 7_655 25_544
Li3 Ge3 Li3 100.9(2) 28 25_544
Li9 Ge3 Li7 65.57(10) 6 .
Li9 Ge3 Li7 65.57(10) 5 .
Li4 Ge3 Li7 146.18(12) 27_645 .
Li4 Ge3 Li7 146.18(12) 26_654 .
Li10 Ge3 Li7 57.02(8) 8_655 .
Li10 Ge3 Li7 57.02(8) 7_655 .
Li3 Ge3 Li7 129.55(12) 28 .
Li3 Ge3 Li7 129.55(12) 25_544 .
Li9 Ge3 Li11 127.64(7) 6 84
Li9 Ge3 Li11 61.10(8) 5 84
Li4 Ge3 Li11 107.98(11) 27_645 84
Li4 Ge3 Li11 55.63(11) 26_654 84
Li10 Ge3 Li11 137.89(9) 8_655 84
Li10 Ge3 Li11 54.96(8) 7_655 84
Li3 Ge3 Li11 55.85(7) 28 84
Li3 Ge3 Li11 111.42(10) 25_544 84
Li7 Ge3 Li11 98.86(6) . 84
Li9 Ge3 Li11 127.64(7) 6 51
Li9 Ge3 Li11 61.10(8) 5 51
Li4 Ge3 Li11 55.63(11) 27_645 51
Li4 Ge3 Li11 107.98(11) 26_654 51
Li10 Ge3 Li11 54.96(8) 8_655 51
Li10 Ge3 Li11 137.89(9) 7_655 51
Li3 Ge3 Li11 55.85(7) 28 51
Li3 Ge3 Li11 111.42(10) 25_544 51
Li7 Ge3 Li11 98.86(6) . 51
Li11 Ge3 Li11 103.33(15) 84 51
Li9 Ge3 Li11 61.10(8) 6 50_554
Li9 Ge3 Li11 127.64(7) 5 50_554
Li4 Ge3 Li11 107.98(11) 27_645 50_554
Li4 Ge3 Li11 55.63(11) 26_654 50_554
Li10 Ge3 Li11 137.89(9) 8_655 50_554
Li10 Ge3 Li11 54.96(8) 7_655 50_554
Li3 Ge3 Li11 111.42(10) 28 50_554
Li3 Ge3 Li11 55.85(7) 25_544 50_554
Li7 Ge3 Li11 98.86(6) . 50_554
Li11 Ge3 Li11 73.86(17) 84 50_554
Li11 Ge3 Li11 162.28(12) 51 50_554
Li12 Ge4 Li12 118.34(16) 56 79
Li12 Ge4 Li11 79.80(5) 56 5
Li12 Ge4 Li11 79.80(5) 79 5
Li12 Ge4 Li11 79.80(5) 56 30
Li12 Ge4 Li11 79.80(5) 79 30
Li11 Ge4 Li11 139.56(19) 5 30
Li12 Ge4 Li8 59.17(8) 56 74
Li12 Ge4 Li8 59.17(8) 79 74
Li11 Ge4 Li8 69.78(9) 5 74
Li11 Ge4 Li8 69.78(9) 30 74
Li12 Ge4 Li5 114.22(8) 56 4_566
Li12 Ge4 Li5 114.22(8) 79 4_566
Li11 Ge4 Li5 147.05(16) 5 4_566
Li11 Ge4 Li5 73.39(15) 30 4_566
Li8 Ge4 Li5 143.17(13) 74 4_566
Li12 Ge4 Li5 114.22(8) 56 25_544
Li12 Ge4 Li5 114.22(8) 79 25_544
Li11 Ge4 Li5 73.39(15) 5 25_544
Li11 Ge4 Li5 147.05(16) 30 25_544
Li8 Ge4 Li5 143.17(13) 74 25_544
Li5 Ge4 Li5 73.7(3) 4_566 25_544
Li12 Ge4 Li6 170.31(15) 56 75_646
Li12 Ge4 Li6 71.36(14) 79 75_646
Li11 Ge4 Li6 102.98(7) 5 75_646
Li11 Ge4 Li6 102.98(7) 30 75_646
Li8 Ge4 Li6 130.53(12) 74 75_646
Li5 Ge4 Li6 58.66(11) 4_566 75_646
Li5 Ge4 Li6 58.66(11) 25_544 75_646
Li12 Ge4 Li6 71.36(14) 56 50_664
Li12 Ge4 Li6 170.31(16) 79 50_664
Li11 Ge4 Li6 102.98(7) 5 50_664
Li11 Ge4 Li6 102.98(7) 30 50_664
Li8 Ge4 Li6 130.53(12) 74 50_664
Li5 Ge4 Li6 58.66(11) 4_566 50_664
Li5 Ge4 Li6 58.66(11) 25_544 50_664
Li6 Ge4 Li6 98.9(2) 75_646 50_664
Li12 Ge4 Li10 134.83(8) 56 76_556
Li12 Ge4 Li10 54.42(7) 79 76_556
Li11 Ge4 Li10 130.74(7) 5 76_556
Li11 Ge4 Li10 55.28(8) 30 76_556
Li8 Ge4 Li10 96.91(7) 74 76_556
Li5 Ge4 Li10 60.88(10) 4_566 76_556
Li5 Ge4 Li10 107.11(10) 25_544 76_556
Li6 Ge4 Li10 49.63(10) 75_646 76_556
Li6 Ge4 Li10 119.43(9) 50_664 76_556
Li12 Ge4 Li10 54.42(7) 56 59_565
Li12 Ge4 Li10 134.83(8) 79 59_565
Li11 Ge4 Li10 130.74(7) 5 59_565
Li11 Ge4 Li10 55.28(8) 30 59_565
Li8 Ge4 Li10 96.91(7) 74 59_565
Li5 Ge4 Li10 60.88(10) 4_566 59_565
Li5 Ge4 Li10 107.11(10) 25_544 59_565
Li6 Ge4 Li10 119.43(9) 75_646 59_565
Li6 Ge4 Li10 49.63(10) 50_664 59_565
Li10 Ge4 Li10 97.06(14) 76_556 59_565
Li12 Ge4 Li10 134.83(8) 56 81_545
Li12 Ge4 Li10 54.42(7) 79 81_545
Li11 Ge4 Li10 55.28(8) 5 81_545
Li11 Ge4 Li10 130.74(7) 30 81_545
Li8 Ge4 Li10 96.91(7) 74 81_545
Li5 Ge4 Li10 107.11(10) 4_566 81_545
Li5 Ge4 Li10 60.88(10) 25_544 81_545
Li6 Ge4 Li10 49.63(10) 75_646 81_545
Li6 Ge4 Li10 119.43(9) 50_664 81_545
Li10 Ge4 Li10 81.27(14) 76_556 81_545
Li10 Ge4 Li10 166.19(13) 59_565 81_545
Li13 Li1 Li7 77.52(16) . .
Li13 Li1 Li7 77.52(16) . 9
Li7 Li1 Li7 115.46(11) . 9
Li13 Li1 Li7 77.52(16) . 5
Li7 Li1 Li7 115.46(11) . 5
Li7 Li1 Li7 115.46(11) 9 5
Li13 Li1 Li12 115.76(16) . 9
Li7 Li1 Li12 69.77(6) . 9
Li7 Li1 Li12 69.77(6) 9 9
Li7 Li1 Li12 166.7(3) 5 9
Li13 Li1 Li12 115.76(16) . 5
Li7 Li1 Li12 166.7(3) . 5
Li7 Li1 Li12 69.77(6) 9 5
Li7 Li1 Li12 69.77(6) 5 5
Li12 Li1 Li12 102.52(19) 9 5
Li13 Li1 Li12 115.75(16) . .
Li7 Li1 Li12 69.77(6) . .
Li7 Li1 Li12 166.7(3) 9 .
Li7 Li1 Li12 69.77(6) 5 .
Li12 Li1 Li12 102.52(19) 9 .
Li12 Li1 Li12 102.52(19) 5 .
Li13 Li1 Ge1 180.00(15) . .
Li7 Li1 Ge1 102.48(16) . .
Li7 Li1 Ge1 102.48(16) 9 .
Li7 Li1 Ge1 102.48(16) 5 .
Li12 Li1 Ge1 64.24(16) 9 .
Li12 Li1 Ge1 64.24(16) 5 .
Li12 Li1 Ge1 64.25(16) . .
Li13 Li1 Ge2 59.90(12) . 2_664
Li7 Li1 Ge2 57.94(7) . 2_664
Li7 Li1 Ge2 137.4(3) 9 2_664
Li7 Li1 Ge2 57.94(7) 5 2_664
Li12 Li1 Ge2 127.41(4) 9 2_664
Li12 Li1 Ge2 127.41(4) 5 2_664
Li12 Li1 Ge2 55.85(8) . 2_664
Ge1 Li1 Ge2 120.10(12) . 2_664
Li13 Li1 Ge2 59.90(12) . 4_466
Li7 Li1 Ge2 137.4(3) . 4_466
Li7 Li1 Ge2 57.94(7) 9 4_466
Li7 Li1 Ge2 57.94(7) 5 4_466
Li12 Li1 Ge2 127.41(4) 9 4_466
Li12 Li1 Ge2 55.85(8) 5 4_466
Li12 Li1 Ge2 127.41(4) . 4_466
Ge1 Li1 Ge2 120.10(12) . 4_466
Ge2 Li1 Ge2 97.05(16) 2_664 4_466
Li13 Li1 Ge2 59.90(12) . 3_646
Li7 Li1 Ge2 57.94(7) . 3_646
Li7 Li1 Ge2 57.94(7) 9 3_646
Li7 Li1 Ge2 137.4(3) 5 3_646
Li12 Li1 Ge2 55.85(8) 9 3_646
Li12 Li1 Ge2 127.41(4) 5 3_646
Li12 Li1 Ge2 127.41(4) . 3_646
Ge1 Li1 Ge2 120.10(12) . 3_646
Ge2 Li1 Ge2 97.05(16) 2_664 3_646
Ge2 Li1 Ge2 97.05(16) 4_466 3_646
Li8 Li2 Li8 119.57(3) 58 30
Li8 Li2 Li8 119.57(3) 58 74
Li8 Li2 Li8 119.57(3) 30 74
Li8 Li2 Li2 109.99(11) 58 28
Li8 Li2 Li2 109.99(11) 30 28
Li8 Li2 Li2 58.51(12) 74 28
Li8 Li2 Li2 58.51(12) 58 74
Li8 Li2 Li2 109.99(11) 30 74
Li8 Li2 Li2 109.99(11) 74 74
Li2 Li2 Li2 60.0 28 74
Li8 Li2 Li2 109.99(11) 58 51
Li8 Li2 Li2 58.51(12) 30 51
Li8 Li2 Li2 109.99(11) 74 51
Li2 Li2 Li2 60.0 28 51
Li2 Li2 Li2 60.0 74 51
Li8 Li2 Ge1 168.7(2) 58 74
Li8 Li2 Ge1 62.31(2) 30 74
Li8 Li2 Ge1 62.31(2) 74 74
Li2 Li2 Ge1 60.59(8) 28 74
Li2 Li2 Ge1 110.20(10) 74 74
Li2 Li2 Ge1 60.59(8) 51 74
Li8 Li2 Ge1 62.31(2) 58 28
Li8 Li2 Ge1 62.31(2) 30 28
Li8 Li2 Ge1 168.7(2) 74 28
Li2 Li2 Ge1 110.20(10) 28 28
Li2 Li2 Ge1 60.59(8) 74 28
Li2 Li2 Ge1 60.59(8) 51 28
Ge1 Li2 Ge1 113.49(8) 74 28
Li8 Li2 Ge1 62.31(2) 58 51
Li8 Li2 Ge1 168.7(2) 30 51
Li8 Li2 Ge1 62.31(2) 74 51
Li2 Li2 Ge1 60.59(8) 28 51
Li2 Li2 Ge1 60.59(8) 74 51
Li2 Li2 Ge1 110.20(10) 51 51
Ge1 Li2 Ge1 113.49(8) 74 51
Ge1 Li2 Ge1 113.49(8) 28 51
Li8 Li2 Li9 64.73(7) 58 58
Li8 Li2 Li9 136.7(2) 30 58
Li8 Li2 Li9 64.73(7) 74 58
Li2 Li2 Li9 107.24(9) 28 58
Li2 Li2 Li9 107.24(9) 74 58
Li2 Li2 Li9 164.75(11) 51 58
Ge1 Li2 Li9 122.54(7) 74 58
Ge1 Li2 Li9 122.54(7) 28 58
Ge1 Li2 Li9 54.55(8) 51 58
Li8 Li2 Li9 136.7(2) 58 74
Li8 Li2 Li9 64.73(7) 30 74
Li8 Li2 Li9 64.73(7) 74 74
Li2 Li2 Li9 107.24(9) 28 74
Li2 Li2 Li9 164.75(11) 74 74
Li2 Li2 Li9 107.24(9) 51 74
Ge1 Li2 Li9 54.55(8) 74 74
Ge1 Li2 Li9 122.54(7) 28 74
Ge1 Li2 Li9 122.54(7) 51 74
Li9 Li2 Li9 83.89(16) 58 74
Li8 Li2 Li9 64.73(7) 58 30
Li8 Li2 Li9 64.73(7) 30 30
Li8 Li2 Li9 136.7(2) 74 30
Li2 Li2 Li9 164.75(11) 28 30
Li2 Li2 Li9 107.24(9) 74 30
Li2 Li2 Li9 107.24(9) 51 30
Ge1 Li2 Li9 122.54(7) 74 30
Ge1 Li2 Li9 54.55(8) 28 30
Ge1 Li2 Li9 122.54(7) 51 30
Li9 Li2 Li9 83.89(16) 58 30
Li9 Li2 Li9 83.89(16) 74 30
Li4 Li3 Li4 68.5(2) 4_566 3_656
Li4 Li3 Li4 68.5(2) 4_566 2_665
Li4 Li3 Li4 68.5(2) 3_656 2_665
Li4 Li3 Li11 116.44(14) 4_566 58
Li4 Li3 Li11 58.87(16) 3_656 58
Li4 Li3 Li11 116.44(14) 2_665 58
Li4 Li3 Li11 58.87(16) 4_566 30
Li4 Li3 Li11 116.44(14) 3_656 30
Li4 Li3 Li11 116.44(14) 2_665 30
Li11 Li3 Li11 117.37(8) 58 30
Li4 Li3 Li11 116.44(14) 4_566 74
Li4 Li3 Li11 116.44(14) 3_656 74
Li4 Li3 Li11 58.87(16) 2_665 74
Li11 Li3 Li11 117.37(9) 58 74
Li11 Li3 Li11 117.37(8) 30 74
Li4 Li3 Ge3 59.15(8) 4_566 81
Li4 Li3 Ge3 59.15(8) 3_656 81
Li4 Li3 Ge3 115.4(2) 2_665 81
Li11 Li3 Ge3 64.34(4) 58 81
Li11 Li3 Ge3 64.34(4) 30 81
Li11 Li3 Ge3 174.3(3) 74 81
Li4 Li3 Ge3 59.15(8) 4_566 53
Li4 Li3 Ge3 115.4(2) 3_656 53
Li4 Li3 Ge3 59.15(8) 2_665 53
Li11 Li3 Ge3 174.3(3) 58 53
Li11 Li3 Ge3 64.34(4) 30 53
Li11 Li3 Ge3 64.34(4) 74 53
Ge3 Li3 Ge3 113.40(10) 81 53
Li4 Li3 Ge3 115.4(2) 4_566 25
Li4 Li3 Ge3 59.15(8) 3_656 25
Li4 Li3 Ge3 59.15(8) 2_665 25
Li11 Li3 Ge3 64.34(4) 58 25
Li11 Li3 Ge3 174.3(3) 30 25
Li11 Li3 Ge3 64.34(4) 74 25
Ge3 Li3 Ge3 113.40(10) 81 25
Ge3 Li3 Ge3 113.40(10) 53 25
Li4 Li3 Li9 103.69(11) 4_566 74
Li4 Li3 Li9 103.69(11) 3_656 74
Li4 Li3 Li9 170.4(2) 2_665 74
Li11 Li3 Li9 61.06(9) 58 74
Li11 Li3 Li9 61.06(9) 30 74
Li11 Li3 Li9 130.8(3) 74 74
Ge3 Li3 Li9 54.99(8) 81 74
Ge3 Li3 Li9 122.57(9) 53 74
Ge3 Li3 Li9 122.57(9) 25 74
Li4 Li3 Li9 103.69(11) 4_566 58
Li4 Li3 Li9 170.4(2) 3_656 58
Li4 Li3 Li9 103.69(11) 2_665 58
Li11 Li3 Li9 130.8(3) 58 58
Li11 Li3 Li9 61.06(9) 30 58
Li11 Li3 Li9 61.06(9) 74 58
Ge3 Li3 Li9 122.57(9) 81 58
Ge3 Li3 Li9 54.99(8) 53 58
Ge3 Li3 Li9 122.57(9) 25 58
Li9 Li3 Li9 83.41(19) 74 58
Li4 Li3 Li9 170.4(2) 4_566 30
Li4 Li3 Li9 103.69(11) 3_656 30
Li4 Li3 Li9 103.69(11) 2_665 30
Li11 Li3 Li9 61.06(9) 58 30
Li11 Li3 Li9 130.8(3) 30 30
Li11 Li3 Li9 61.06(9) 74 30
Ge3 Li3 Li9 122.57(9) 81 30
Ge3 Li3 Li9 122.57(9) 53 30
Ge3 Li3 Li9 54.99(9) 25 30
Li9 Li3 Li9 83.41(19) 74 30
Li9 Li3 Li9 83.41(19) 58 30
Li11 Li4 Li11 83.65(19) 57 29
Li11 Li4 Li11 83.65(19) 57 73
Li11 Li4 Li11 83.65(19) 29 73
Li11 Li4 Li3 126.07(8) 57 4_566
Li11 Li4 Li3 60.73(12) 29 4_566
Li11 Li4 Li3 126.07(8) 73 4_566
Li11 Li4 Li3 126.07(8) 57 2_665
Li11 Li4 Li3 126.07(8) 29 2_665
Li11 Li4 Li3 60.73(12) 73 2_665
Li3 Li4 Li3 107.81(14) 4_566 2_665
Li11 Li4 Li3 60.73(12) 57 3_656
Li11 Li4 Li3 126.07(8) 29 3_656
Li11 Li4 Li3 126.07(8) 73 3_656
Li3 Li4 Li3 107.81(14) 4_566 3_656
Li3 Li4 Li3 107.81(14) 2_665 3_656
Li11 Li4 Ge3 66.36(6) 57 26_655
Li11 Li4 Ge3 138.9(2) 29 26_655
Li11 Li4 Ge3 66.36(6) 73 26_655
Li3 Li4 Ge3 160.4(2) 4_566 26_655
Li3 Li4 Ge3 62.79(3) 2_665 26_655
Li3 Li4 Ge3 62.79(3) 3_656 26_655
Li11 Li4 Ge3 138.9(2) 57 54_565
Li11 Li4 Ge3 66.36(6) 29 54_565
Li11 Li4 Ge3 66.36(6) 73 54_565
Li3 Li4 Ge3 62.79(3) 4_566 54_565
Li3 Li4 Ge3 62.79(3) 2_665 54_565
Li3 Li4 Ge3 160.4(2) 3_656 54_565
Ge3 Li4 Ge3 119.937(11) 26_655 54_565
Li11 Li4 Ge3 66.36(6) 57 82_556
Li11 Li4 Ge3 66.36(6) 29 82_556
Li11 Li4 Ge3 138.9(2) 73 82_556
Li3 Li4 Ge3 62.79(3) 4_566 82_556
Li3 Li4 Ge3 160.4(2) 2_665 82_556
Li3 Li4 Ge3 62.79(3) 3_656 82_556
Ge3 Li4 Ge3 119.937(11) 26_655 82_556
Ge3 Li4 Ge3 119.937(11) 54_565 82_556
Li11 Li4 Li4 107.38(11) 57 2_665
Li11 Li4 Li4 107.38(11) 29 2_665
Li11 Li4 Li4 164.91(13) 73 2_665
Li3 Li4 Li4 55.73(11) 4_566 2_665
Li3 Li4 Li4 104.17(13) 2_665 2_665
Li3 Li4 Li4 55.73(11) 3_656 2_665
Ge3 Li4 Li4 108.01(10) 26_655 2_665
Ge3 Li4 Li4 108.01(10) 54_565 2_665
Ge3 Li4 Li4 56.18(12) 82_556 2_665
Li11 Li4 Li4 107.38(11) 57 4_566
Li11 Li4 Li4 164.91(13) 29 4_566
Li11 Li4 Li4 107.38(11) 73 4_566
Li3 Li4 Li4 104.17(13) 4_566 4_566
Li3 Li4 Li4 55.73(11) 2_665 4_566
Li3 Li4 Li4 55.73(11) 3_656 4_566
Ge3 Li4 Li4 56.18(12) 26_655 4_566
Ge3 Li4 Li4 108.01(10) 54_565 4_566
Ge3 Li4 Li4 108.01(10) 82_556 4_566
Li4 Li4 Li4 60.0 2_665 4_566
Li11 Li4 Li4 164.91(13) 57 3_656
Li11 Li4 Li4 107.38(11) 29 3_656
Li11 Li4 Li4 107.38(11) 73 3_656
Li3 Li4 Li4 55.73(11) 4_566 3_656
Li3 Li4 Li4 55.73(11) 2_665 3_656
Li3 Li4 Li4 104.17(13) 3_656 3_656
Ge3 Li4 Li4 108.01(10) 26_655 3_656
Ge3 Li4 Li4 56.18(12) 54_565 3_656
Ge3 Li4 Li4 108.01(10) 82_556 3_656
Li4 Li4 Li4 60.0 2_665 3_656
Li4 Li4 Li4 60.0 4_566 3_656
Li6 Li5 Li6 103.90(17) 28_566 51_656
Li6 Li5 Li6 103.90(17) 28_566 74_665
Li6 Li5 Li6 103.90(17) 51_656 74_665
Li6 Li5 Ge4 153.8(3) 28_566 25
Li6 Li5 Ge4 62.23(4) 51_656 25
Li6 Li5 Ge4 62.23(4) 74_665 25
Li6 Li5 Ge4 62.23(4) 28_566 53
Li6 Li5 Ge4 153.8(3) 51_656 53
Li6 Li5 Ge4 62.23(4) 74_665 53
Ge4 Li5 Ge4 119.926(12) 25 53
Li6 Li5 Ge4 62.23(4) 28_566 81
Li6 Li5 Ge4 62.23(4) 51_656 81
Li6 Li5 Ge4 153.8(3) 74_665 81
Ge4 Li5 Ge4 119.926(12) 25 81
Ge4 Li5 Ge4 119.926(12) 53 81
Li6 Li5 Li10 126.41(3) 28_566 57
Li6 Li5 Li10 51.41(12) 51_656 57
Li6 Li5 Li10 126.41(3) 74_665 57
Ge4 Li5 Li10 64.30(4) 25 57
Ge4 Li5 Li10 154.7(2) 53 57
Ge4 Li5 Li10 64.30(4) 81 57
Li6 Li5 Li10 51.41(12) 28_566 29
Li6 Li5 Li10 126.41(3) 51_656 29
Li6 Li5 Li10 126.41(3) 74_665 29
Ge4 Li5 Li10 154.7(2) 25 29
Ge4 Li5 Li10 64.30(4) 53 29
Ge4 Li5 Li10 64.30(4) 81 29
Li10 Li5 Li10 101.22(16) 57 29
Li6 Li5 Li10 126.41(3) 28_566 73
Li6 Li5 Li10 126.41(3) 51_656 73
Li6 Li5 Li10 51.41(12) 74_665 73
Ge4 Li5 Li10 64.30(4) 25 73
Ge4 Li5 Li10 64.30(4) 53 73
Ge4 Li5 Li10 154.7(2) 81 73
Li10 Li5 Li10 101.22(16) 57 73
Li10 Li5 Li10 101.22(16) 29 73
Li6 Li5 Li11 92.07(10) 28_566 57
Li6 Li5 Li11 153.7(2) 51_656 57
Li6 Li5 Li11 92.07(10) 74_665 57
Ge4 Li5 Li11 109.66(13) 25 57
Ge4 Li5 Li11 52.46(9) 53 57
Ge4 Li5 Li11 109.66(13) 81 57
Li10 Li5 Li11 102.3(2) 57 57
Li10 Li5 Li11 50.83(9) 29 57
Li10 Li5 Li11 50.83(9) 73 57
Li6 Li5 Li11 153.7(2) 28_566 29
Li6 Li5 Li11 92.07(10) 51_656 29
Li6 Li5 Li11 92.07(10) 74_665 29
Ge4 Li5 Li11 52.46(9) 25 29
Ge4 Li5 Li11 109.66(13) 53 29
Ge4 Li5 Li11 109.66(13) 81 29
Li10 Li5 Li11 50.83(9) 57 29
Li10 Li5 Li11 102.3(2) 29 29
Li10 Li5 Li11 50.83(9) 73 29
Li11 Li5 Li11 66.23(17) 57 29
Li6 Li5 Li11 92.07(10) 28_566 73
Li6 Li5 Li11 92.07(10) 51_656 73
Li6 Li5 Li11 153.7(2) 74_665 73
Ge4 Li5 Li11 109.66(13) 25 73
Ge4 Li5 Li11 109.66(13) 53 73
Ge4 Li5 Li11 52.46(9) 81 73
Li10 Li5 Li11 50.83(9) 57 73
Li10 Li5 Li11 50.83(9) 29 73
Li10 Li5 Li11 102.3(2) 73 73
Li11 Li5 Li11 66.23(17) 57 73
Li11 Li5 Li11 66.23(17) 29 73
Li10 Li6 Li10 106.2(2) 10_656 6_566
Li10 Li6 Li10 106.2(2) 10_656 2_665
Li10 Li6 Li10 106.2(2) 6_566 2_665
Li10 Li6 Li5 126.66(12) 10_656 28_566
Li10 Li6 Li5 68.52(17) 6_566 28_566
Li10 Li6 Li5 126.66(12) 2_665 28_566
Li10 Li6 Li5 68.52(17) 10_656 51_656
Li10 Li6 Li5 126.66(12) 6_566 51_656
Li10 Li6 Li5 126.66(12) 2_665 51_656
Li5 Li6 Li5 74.1(2) 28_566 51_656
Li10 Li6 Li5 126.66(12) 10_656 74_665
Li10 Li6 Li5 126.66(12) 6_566 74_665
Li10 Li6 Li5 68.52(17) 2_665 74_665
Li5 Li6 Li5 74.1(2) 28_566 74_665
Li5 Li6 Li5 74.1(2) 51_656 74_665
Li10 Li6 Ge2 67.42(18) 10_656 .
Li10 Li6 Ge2 67.42(18) 6_566 .
Li10 Li6 Ge2 67.42(18) 2_665 .
Li5 Li6 Ge2 135.94(14) 28_566 .
Li5 Li6 Ge2 135.94(14) 51_656 .
Li5 Li6 Ge2 135.94(15) 74_665 .
Li10 Li6 Ge4 69.31(4) 10_656 34_656
Li10 Li6 Ge4 69.31(4) 6_566 34_656
Li10 Li6 Ge4 171.6(3) 2_665 34_656
Li5 Li6 Ge4 59.10(7) 28_566 34_656
Li5 Li6 Ge4 59.10(7) 51_656 34_656
Li5 Li6 Ge4 119.9(2) 74_665 34_656
Ge2 Li6 Ge4 104.21(12) . 34_656
Li10 Li6 Ge4 171.6(3) 10_656 78_566
Li10 Li6 Ge4 69.31(4) 6_566 78_566
Li10 Li6 Ge4 69.31(4) 2_665 78_566
Li5 Li6 Ge4 59.10(7) 28_566 78_566
Li5 Li6 Ge4 119.9(2) 51_656 78_566
Li5 Li6 Ge4 59.10(7) 74_665 78_566
Ge2 Li6 Ge4 104.21(12) . 78_566
Ge4 Li6 Ge4 114.18(10) 34_656 78_566
Li10 Li6 Ge4 69.31(4) 10_656 50_665
Li10 Li6 Ge4 171.6(3) 6_566 50_665
Li10 Li6 Ge4 69.31(4) 2_665 50_665
Li5 Li6 Ge4 119.9(2) 28_566 50_665
Li5 Li6 Ge4 59.10(7) 51_656 50_665
Li5 Li6 Ge4 59.10(7) 74_665 50_665
Ge2 Li6 Ge4 104.21(12) . 50_665
Ge4 Li6 Ge4 114.18(10) 34_656 50_665
Ge4 Li6 Ge4 114.18(10) 78_566 50_665
Li10 Li6 Li12 119.8(3) 10_656 10_666
Li10 Li6 Li12 53.13(9) 6_566 10_666
Li10 Li6 Li12 53.13(9) 2_665 10_666
Li5 Li6 Li12 99.36(9) 28_566 10_666
Li5 Li6 Li12 171.6(2) 51_656 10_666
Li5 Li6 Li12 99.36(9) 74_665 10_666
Ge2 Li6 Li12 52.42(10) . 10_666
Ge4 Li6 Li12 122.27(8) 34_656 10_666
Ge4 Li6 Li12 51.79(6) 78_566 10_666
Ge4 Li6 Li12 122.27(8) 50_665 10_666
Li10 Li6 Li12 53.13(9) 10_656 2_666
Li10 Li6 Li12 53.13(9) 6_566 2_666
Li10 Li6 Li12 119.8(3) 2_665 2_666
Li5 Li6 Li12 99.36(9) 28_566 2_666
Li5 Li6 Li12 99.36(9) 51_656 2_666
Li5 Li6 Li12 171.6(2) 74_665 2_666
Ge2 Li6 Li12 52.42(10) . 2_666
Ge4 Li6 Li12 51.79(6) 34_656 2_666
Ge4 Li6 Li12 122.27(8) 78_566 2_666
Ge4 Li6 Li12 122.27(8) 50_665 2_666
Li12 Li6 Li12 86.68(15) 10_666 2_666
Li1 Li7 Li1 95.5(3) . 4
Li1 Li7 Ge2 66.99(11) . 3_646
Li1 Li7 Ge2 66.99(11) 4 3_646
Li1 Li7 Ge2 66.99(11) . 2_664
Li1 Li7 Ge2 66.99(11) 4 2_664
Ge2 Li7 Ge2 108.92(18) 3_646 2_664
Li1 Li7 Li10 109.19(9) . 8_655
Li1 Li7 Li10 109.19(9) 4 8_655
Ge2 Li7 Li10 173.7(2) 3_646 8_655
Ge2 Li7 Li10 64.81(8) 2_664 8_655
Li1 Li7 Li10 109.19(9) . 7_655
Li1 Li7 Li10 109.19(9) 4 7_655
Ge2 Li7 Li10 64.81(8) 3_646 7_655
Ge2 Li7 Li10 173.7(2) 2_664 7_655
Li10 Li7 Li10 121.5(3) 8_655 7_655
Li1 Li7 Ge3 132.25(16) . .
Li1 Li7 Ge3 132.25(16) 4 .
Ge2 Li7 Ge3 125.54(9) 3_646 .
Ge2 Li7 Ge3 125.54(9) 2_664 .
Li10 Li7 Ge3 60.73(13) 8_655 .
Li10 Li7 Ge3 60.73(13) 7_655 .
Li1 Li7 Li9 78.51(17) . 5
Li1 Li7 Li9 174.0(2) 4 5
Ge2 Li7 Li9 110.10(3) 3_646 5
Ge2 Li7 Li9 110.10(3) 2_664 5
Li10 Li7 Li9 73.19(11) 8_655 5
Li10 Li7 Li9 73.19(11) 7_655 5
Ge3 Li7 Li9 53.75(11) . 5
Li1 Li7 Li9 174.0(2) . 6
Li1 Li7 Li9 78.51(17) 4 6
Ge2 Li7 Li9 110.10(3) 3_646 6
Ge2 Li7 Li9 110.10(3) 2_664 6
Li10 Li7 Li9 73.19(11) 8_655 6
Li10 Li7 Li9 73.19(11) 7_655 6
Ge3 Li7 Li9 53.75(11) . 6
Li9 Li7 Li9 107.5(2) 5 6
Li1 Li7 Li12 56.75(11) . .
Li1 Li7 Li12 121.01(15) 4 .
Ge2 Li7 Li12 123.46(14) 3_646 .
Ge2 Li7 Li12 54.55(6) 2_664 .
Li10 Li7 Li12 53.53(7) 8_655 .
Li10 Li7 Li12 128.20(12) 7_655 .
Ge3 Li7 Li12 91.41(11) . .
Li9 Li7 Li12 55.61(7) 5 .
Li9 Li7 Li12 126.43(13) 6 .
Li1 Li7 Li12 121.01(15) . 11
Li1 Li7 Li12 56.75(12) 4 11
Ge2 Li7 Li12 123.46(14) 3_646 11
Ge2 Li7 Li12 54.55(6) 2_664 11
Li10 Li7 Li12 53.53(7) 8_655 11
Li10 Li7 Li12 128.20(12) 7_655 11
Ge3 Li7 Li12 91.41(11) . 11
Li9 Li7 Li12 126.44(13) 5 11
Li9 Li7 Li12 55.61(7) 6 11
Li12 Li7 Li12 91.85(15) . 11
Li1 Li7 Li12 121.01(15) . 4
Li1 Li7 Li12 56.75(12) 4 4
Ge2 Li7 Li12 54.55(6) 3_646 4
Ge2 Li7 Li12 123.46(14) 2_664 4
Li10 Li7 Li12 128.20(12) 8_655 4
Li10 Li7 Li12 53.53(7) 7_655 4
Ge3 Li7 Li12 91.41(11) . 4
Li9 Li7 Li12 126.44(13) 5 4
Li9 Li7 Li12 55.61(7) 6 4
Li12 Li7 Li12 177.2(2) . 4
Li12 Li7 Li12 88.08(15) 11 4
Li12 Li8 Li12 119.2(3) 5 30
Li12 Li8 Li2 115.55(10) 5 51
Li12 Li8 Li2 115.55(10) 30 51
Li12 Li8 Li2 115.55(10) 5 74
Li12 Li8 Li2 115.55(10) 30 74
Li2 Li8 Li2 63.0(2) 51 74
Li12 Li8 Ge4 59.61(13) 5 74
Li12 Li8 Ge4 59.61(13) 30 74
Li2 Li8 Ge4 148.51(12) 51 74
Li2 Li8 Ge4 148.51(12) 74 74
Li12 Li8 Ge1 176.7(2) 5 28
Li12 Li8 Ge1 64.08(8) 30 28
Li2 Li8 Ge1 61.77(10) 51 28
Li2 Li8 Ge1 61.77(10) 74 28
Ge4 Li8 Ge1 123.69(9) 74 28
Li12 Li8 Ge1 64.08(8) 5 .
Li12 Li8 Ge1 176.7(2) 30 .
Li2 Li8 Ge1 61.77(10) 51 .
Li2 Li8 Ge1 61.77(10) 74 .
Ge4 Li8 Ge1 123.69(9) 74 .
Ge1 Li8 Ge1 112.62(17) 28 .
Li12 Li8 Li9 59.75(9) 5 .
Li12 Li8 Li9 127.68(10) 30 .
Li2 Li8 Li9 107.71(17) 51 .
Li2 Li8 Li9 60.97(12) 74 .
Ge4 Li8 Li9 96.10(12) 74 .
Ge1 Li8 Li9 118.61(15) 28 .
Ge1 Li8 Li9 53.37(7) . .
Li12 Li8 Li9 127.68(10) 5 28
Li12 Li8 Li9 59.75(9) 30 28
Li2 Li8 Li9 60.97(12) 51 28
Li2 Li8 Li9 107.71(17) 74 28
Ge4 Li8 Li9 96.10(12) 74 28
Ge1 Li8 Li9 53.37(7) 28 28
Ge1 Li8 Li9 118.61(15) . 28
Li9 Li8 Li9 167.8(2) . 28
Li12 Li8 Li9 127.68(10) 5 35
Li12 Li8 Li9 59.75(9) 30 35
Li2 Li8 Li9 107.71(17) 51 35
Li2 Li8 Li9 60.97(12) 74 35
Ge4 Li8 Li9 96.10(12) 74 35
Ge1 Li8 Li9 53.37(7) 28 35
Ge1 Li8 Li9 118.61(15) . 35
Li9 Li8 Li9 80.53(16) . 35
Li9 Li8 Li9 98.16(15) 28 35
Li12 Li8 Li9 59.75(9) 5 9
Li12 Li8 Li9 127.68(10) 30 9
Li2 Li8 Li9 60.97(12) 51 9
Li2 Li8 Li9 107.71(17) 74 9
Ge4 Li8 Li9 96.10(12) 74 9
Ge1 Li8 Li9 118.61(15) 28 9
Ge1 Li8 Li9 53.37(7) . 9
Li9 Li8 Li9 98.16(15) . 9
Li9 Li8 Li9 80.53(16) 28 9
Li9 Li8 Li9 167.8(2) 35 9
Li12 Li8 Li11 73.09(10) 5 56
Li12 Li8 Li11 73.09(10) 30 56
Li2 Li8 Li11 156.59(19) 51 56
Li2 Li8 Li11 93.61(13) 74 56
Ge4 Li8 Li11 54.90(10) 74 56
Ge1 Li8 Li11 108.60(3) 28 56
Ge1 Li8 Li11 108.60(3) . 56
Li9 Li8 Li11 56.14(7) . 56
Li9 Li8 Li11 132.79(15) 28 56
Li9 Li8 Li11 56.14(7) 35 56
Li9 Li8 Li11 132.79(15) 9 56
Ge1 Li9 Ge3 157.63(19) . 9
Ge1 Li9 Li12 64.89(11) . 9
Ge3 Li9 Li12 101.62(13) 9 9
Ge1 Li9 Li12 64.89(11) . 5
Ge3 Li9 Li12 101.62(13) 9 5
Li12 Li9 Li12 97.78(19) 9 5
Ge1 Li9 Li11 123.27(11) . 35
Ge3 Li9 Li11 64.66(10) 9 35
Li12 Li9 Li11 74.17(9) 9 35
Li12 Li9 Li11 161.4(2) 5 35
Ge1 Li9 Li11 123.27(11) . 56
Ge3 Li9 Li11 64.66(10) 9 56
Li12 Li9 Li11 161.4(2) 9 56
Li12 Li9 Li11 74.17(9) 5 56
Li11 Li9 Li11 108.15(18) 35 56
Ge1 Li9 Li2 62.06(11) . 74
Ge3 Li9 Li2 140.31(18) 9 74
Li12 Li9 Li2 104.17(12) 9 74
Li12 Li9 Li2 104.17(12) 5 74
Li11 Li9 Li2 94.19(15) 35 74
Li11 Li9 Li2 94.19(15) 56 74
Ge1 Li9 Li3 141.3(2) . 74
Ge3 Li9 Li3 61.02(12) 9 74
Li12 Li9 Li3 130.17(9) 9 74
Li12 Li9 Li3 130.17(9) 5 74
Li11 Li9 Li3 56.05(9) 35 74
Li11 Li9 Li3 56.05(9) 56 74
Li2 Li9 Li3 79.29(17) 74 74
Ge1 Li9 Li8 61.00(9) . 5
Ge3 Li9 Li8 127.00(10) 9 5
Li12 Li9 Li8 53.99(9) 9 5
Li12 Li9 Li8 125.56(16) 5 5
Li11 Li9 Li8 63.48(11) 35 5
Li11 Li9 Li8 144.1(2) 56 5
Li2 Li9 Li8 54.30(12) 74 5
Li3 Li9 Li8 97.28(12) 74 5
Ge1 Li9 Li8 61.00(9) . .
Ge3 Li9 Li8 127.00(10) 9 .
Li12 Li9 Li8 125.56(16) 9 .
Li12 Li9 Li8 53.99(9) 5 .
Li11 Li9 Li8 144.1(2) 35 .
Li11 Li9 Li8 63.48(11) 56 .
Li2 Li9 Li8 54.30(12) 74 .
Li3 Li9 Li8 97.28(12) 74 .
Li8 Li9 Li8 101.8(2) 5 .
Ge1 Li9 Li7 96.94(16) . 9
Ge3 Li9 Li7 60.69(12) 9 9
Li12 Li9 Li7 63.44(11) 9 9
Li12 Li9 Li7 63.44(11) 5 9
Li11 Li9 Li7 98.07(13) 35 9
Li11 Li9 Li7 98.07(13) 56 9
Li2 Li9 Li7 159.00(18) 74 9
Li3 Li9 Li7 121.71(17) 74 9
Li8 Li9 Li7 117.32(14) 5 9
Li8 Li9 Li7 117.32(14) . 9
Ge1 Li9 Li10 112.95(11) . 3_556
Ge3 Li9 Li10 53.80(9) 9 3_556
Li12 Li9 Li10 112.67(16) 9 3_556
Li12 Li9 Li10 48.59(9) 5 3_556
Li11 Li9 Li10 118.33(16) 35 3_556
Li11 Li9 Li10 49.41(8) 56 3_556
Li2 Li9 Li10 135.78(9) 74 3_556
Li3 Li9 Li10 94.18(11) 74 3_556
Li8 Li9 Li10 166.41(17) 5 3_556
Li8 Li9 Li10 83.89(11) . 3_556
Li7 Li9 Li10 49.68(10) 9 3_556
Li6 Li10 Li12 78.05(13) 2_665 11_556
Li6 Li10 Li12 78.05(13) 2_665 8_556
Li12 Li10 Li12 114.2(2) 11_556 8_556
Li6 Li10 Li11 114.49(18) 2_665 33_545
Li12 Li10 Li11 80.80(12) 11_556 33_545
Li12 Li10 Li11 162.97(17) 8_556 33_545
Li6 Li10 Li11 114.49(18) 2_665 53_455
Li12 Li10 Li11 162.97(17) 11_556 53_455
Li12 Li10 Li11 80.80(12) 8_556 53_455
Li11 Li10 Li11 83.3(2) 33_545 53_455
Li6 Li10 Li7 118.6(2) 2_665 10_556
Li12 Li10 Li7 69.99(12) 11_556 10_556
Li12 Li10 Li7 69.99(12) 8_556 10_556
Li11 Li10 Li7 110.33(16) 33_545 10_556
Li11 Li10 Li7 110.33(16) 53_455 10_556
Li6 Li10 Ge3 179.2(2) 2_665 10_556
Li12 Li10 Ge3 102.38(13) 11_556 10_556
Li12 Li10 Ge3 102.38(13) 8_556 10_556
Li11 Li10 Ge3 64.94(10) 33_545 10_556
Li11 Li10 Ge3 64.94(10) 53_455 10_556
Li7 Li10 Ge3 62.25(14) 10_556 10_556
Li6 Li10 Ge2 61.07(16) 2_665 2_665
Li12 Li10 Ge2 57.32(10) 11_556 2_665
Li12 Li10 Ge2 57.32(10) 8_556 2_665
Li11 Li10 Ge2 138.11(11) 33_545 2_665
Li11 Li10 Ge2 138.11(11) 53_455 2_665
Li7 Li10 Ge2 57.50(12) 10_556 2_665
Ge3 Li10 Ge2 119.76(15) 10_556 2_665
Li6 Li10 Li5 60.1(2) 2_665 73_445
Li12 Li10 Li5 109.40(15) 11_556 73_445
Li12 Li10 Li5 109.40(15) 8_556 73_445
Li11 Li10 Li5 70.63(13) 33_545 73_445
Li11 Li10 Li5 70.63(13) 53_455 73_445
Li7 Li10 Li5 178.6(2) 10_556 73_445
Ge3 Li10 Li5 119.11(15) 10_556 73_445
Ge2 Li10 Li5 121.14(18) 2_665 73_445
Li6 Li10 Ge4 61.05(11) 2_665 49_455
Li12 Li10 Ge4 138.85(17) 11_556 49_455
Li12 Li10 Ge4 55.57(8) 8_556 49_455
Li11 Li10 Ge4 118.86(16) 33_545 49_455
Li11 Li10 Ge4 55.85(8) 53_455 49_455
Li7 Li10 Ge4 124.79(7) 10_556 49_455
Ge3 Li10 Ge4 118.58(8) 10_556 49_455
Ge2 Li10 Ge4 95.96(9) 2_665 49_455
Li5 Li10 Ge4 54.82(8) 73_445 49_455
Li6 Li10 Ge4 61.05(11) 2_665 29_545
Li12 Li10 Ge4 55.57(8) 11_556 29_545
Li12 Li10 Ge4 138.85(17) 8_556 29_545
Li11 Li10 Ge4 55.85(8) 33_545 29_545
Li11 Li10 Ge4 118.86(16) 53_455 29_545
Li7 Li10 Ge4 124.79(7) 10_556 29_545
Ge3 Li10 Ge4 118.58(8) 10_556 29_545
Ge2 Li10 Ge4 95.96(9) 2_665 29_545
Li5 Li10 Ge4 54.82(8) 73_445 29_545
Ge4 Li10 Ge4 103.49(13) 49_455 29_545
Li6 Li10 Li9 131.08(8) 2_665 3_556
Li12 Li10 Li9 126.81(18) 11_556 3_556
Li12 Li10 Li9 53.95(8) 8_556 3_556
Li11 Li10 Li9 111.07(16) 33_545 3_556
Li11 Li10 Li9 54.47(9) 53_455 3_556
Li7 Li10 Li9 57.13(11) 10_556 3_556
Ge3 Li10 Li9 49.21(9) 10_556 3_556
Ge2 Li10 Li9 95.17(10) 2_665 3_556
Li5 Li10 Li9 123.60(10) 73_445 3_556
Ge4 Li10 Li9 82.12(5) 49_455 3_556
Ge4 Li10 Li9 166.92(13) 29_545 3_556
Li4 Li11 Li10 94.16(13) 73_445 33_545
Li4 Li11 Li10 94.16(13) 73_445 53_455
Li10 Li11 Li10 116.5(2) 33_545 53_455
Li4 Li11 Ge4 144.7(2) 73_445 9
Li10 Li11 Ge4 68.87(10) 33_545 9
Li10 Li11 Ge4 68.87(10) 53_455 9
Li4 Li11 Li3 60.39(19) 73_445 74
Li10 Li11 Li3 119.28(12) 33_545 74
Li10 Li11 Li3 119.28(12) 53_455 74
Ge4 Li11 Li3 154.9(2) 9 74
Li4 Li11 Li9 106.12(14) 73_445 35
Li10 Li11 Li9 76.12(11) 33_545 35
Li10 Li11 Li9 155.6(2) 53_455 35
Ge4 Li11 Li9 99.65(12) 9 35
Li3 Li11 Li9 62.89(13) 74 35
Li4 Li11 Li9 106.12(14) 73_445 56
Li10 Li11 Li9 155.6(2) 33_545 56
Li10 Li11 Li9 76.12(11) 53_455 56
Ge4 Li11 Li9 99.65(12) 9 56
Li3 Li11 Li9 62.89(13) 74 56
Li9 Li11 Li9 85.2(2) 35 56
Li4 Li11 Ge3 58.01(7) 73_445 30
Li10 Li11 Ge3 60.10(9) 33_545 30
Li10 Li11 Ge3 149.83(18) 53_455 30
Ge4 Li11 Ge3 126.34(5) 9 30
Li3 Li11 Ge3 59.81(7) 74 30
Li9 Li11 Ge3 54.24(8) 35 30
Li9 Li11 Ge3 120.02(15) 56 30
Li4 Li11 Ge3 58.01(7) 73_445 50
Li10 Li11 Ge3 149.83(18) 33_545 50
Li10 Li11 Ge3 60.10(9) 53_455 50
Ge4 Li11 Ge3 126.34(5) 9 50
Li3 Li11 Ge3 59.81(7) 74 50
Li9 Li11 Ge3 120.02(15) 35 50
Li9 Li11 Ge3 54.24(8) 56 50
Ge3 Li11 Ge3 106.55(11) 30 50
Li4 Li11 Li8 159.99(19) 73_445 58
Li10 Li11 Li8 96.33(11) 33_545 58
Li10 Li11 Li8 96.33(11) 53_455 58
Ge4 Li11 Li8 55.32(12) 9 58
Li3 Li11 Li8 99.6(2) 74 58
Li9 Li11 Li8 60.38(11) 35 58
Li9 Li11 Li8 60.38(11) 56 58
Ge3 Li11 Li8 113.76(10) 30 58
Ge3 Li11 Li8 113.76(10) 50 58
Li4 Li11 Li5 90.53(17) 73_445 73_445
Li10 Li11 Li5 58.54(11) 33_545 73_445
Li10 Li11 Li5 58.54(11) 53_455 73_445
Ge4 Li11 Li5 54.16(9) 9 73_445
Li3 Li11 Li5 150.9(2) 74 73_445
Li9 Li11 Li5 132.79(11) 35 73_445
Li9 Li11 Li5 132.79(11) 56 73_445
Ge3 Li11 Li5 106.39(11) 30 73_445
Ge3 Li11 Li5 106.39(11) 50 73_445
Li8 Li11 Li5 109.48(15) 58 73_445
Li4 Li11 Li12 137.98(7) 73_445 28
Li10 Li11 Li12 48.99(8) 33_545 28
Li10 Li11 Li12 118.42(13) 53_455 28
Ge4 Li11 Li12 49.73(7) 9 28
Li3 Li11 Li12 115.30(14) 74 28
Li9 Li11 Li12 52.45(8) 35 28
Li9 Li11 Li12 106.95(17) 56 28
Ge3 Li11 Li12 83.06(4) 30 28
Ge3 Li11 Li12 161.16(16) 50 28
Li8 Li11 Li12 47.59(8) 58 28
Li5 Li11 Li12 85.63(11) 73_445 28
Li10 Li12 Li10 97.6(2) 11_565 8_655
Li10 Li12 Li8 109.19(14) 11_565 9
Li10 Li12 Li8 109.19(14) 8_655 9
Li10 Li12 Ge4 70.01(12) 11_565 58
Li10 Li12 Ge4 70.01(12) 8_655 58
Li8 Li12 Ge4 61.22(13) 9 58
Li10 Li12 Ge2 66.79(11) 11_565 2_664
Li10 Li12 Ge2 66.79(11) 8_655 2_664
Li8 Li12 Ge2 173.20(19) 9 2_664
Ge4 Li12 Ge2 111.98(14) 58 2_664
Li10 Li12 Li1 108.88(18) 11_565 .
Li10 Li12 Li1 108.88(18) 8_655 .
Li8 Li12 Li1 120.6(2) 9 .
Ge4 Li12 Li1 178.2(2) 58 .
Ge2 Li12 Li1 66.17(16) 2_664 .
Li10 Li12 Li9 77.47(10) 11_565 9
Li10 Li12 Li9 171.12(19) 8_655 9
Li8 Li12 Li9 66.26(11) 9 9
Ge4 Li12 Li9 101.24(10) 58 9
Ge2 Li12 Li9 116.89(11) 2_664 9
Li1 Li12 Li9 79.83(14) . 9
Li10 Li12 Li9 171.12(19) 11_565 5
Li10 Li12 Li9 77.47(10) 8_655 5
Li8 Li12 Li9 66.26(11) 9 5
Ge4 Li12 Li9 101.24(10) 58 5
Ge2 Li12 Li9 116.89(11) 2_664 5
Li1 Li12 Li9 79.83(14) . 5
Li9 Li12 Li9 106.4(2) 9 5
Li10 Li12 Ge1 131.18(12) 11_565 .
Li10 Li12 Ge1 131.18(12) 8_655 .
Li8 Li12 Ge1 61.75(12) 9 .
Ge4 Li12 Ge1 122.97(12) 58 .
Ge2 Li12 Ge1 125.05(11) 2_664 .
Li1 Li12 Ge1 58.88(15) . .
Li9 Li12 Ge1 54.46(10) 9 .
Li9 Li12 Ge1 54.46(10) 5 .
Li10 Li12 Li7 122.52(16) 11_565 .
Li10 Li12 Li7 56.48(12) 8_655 .
Li8 Li12 Li7 127.08(12) 9 .
Ge4 Li12 Li7 125.70(12) 58 .
Ge2 Li12 Li7 56.01(8) 2_664 .
Li1 Li12 Li7 53.48(12) . .
Li9 Li12 Li7 132.40(16) 9 .
Li9 Li12 Li7 60.95(11) 5 .
Ge1 Li12 Li7 89.47(8) . .
Li10 Li12 Li7 56.48(12) 11_565 5
Li10 Li12 Li7 122.52(16) 8_655 5
Li8 Li12 Li7 127.08(12) 9 5
Ge4 Li12 Li7 125.70(12) 58 5
Ge2 Li12 Li7 56.01(8) 2_664 5
Li1 Li12 Li7 53.48(12) . 5
Li9 Li12 Li7 60.95(11) 9 5
Li9 Li12 Li7 132.40(16) 5 5
Ge1 Li12 Li7 89.47(8) . 5
Li7 Li12 Li7 92.8(2) . 5
Li10 Li12 Li6 48.83(12) 11_565 2_664
Li10 Li12 Li6 48.83(12) 8_655 2_664
Li8 Li12 Li6 118.08(18) 9 2_664
Ge4 Li12 Li6 56.86(11) 58 2_664
Ge2 Li12 Li6 55.12(12) 2_664 2_664
Li1 Li12 Li6 121.3(2) . 2_664
Li9 Li12 Li6 125.51(10) 9 2_664
Li9 Li12 Li6 125.51(10) 5 2_664
Ge1 Li12 Li6 179.83(16) . 2_664
Li7 Li12 Li6 90.65(11) . 2_664
Li7 Li12 Li6 90.65(11) 5 2_664
Li1 Li13 Li1 109.5 . 4
Li1 Li13 Li1 109.5 . 3
Li1 Li13 Li1 109.5 4 3
Li1 Li13 Li1 109.5 . 2
Li1 Li13 Li1 109.5 4 2
Li1 Li13 Li1 109.5 3 2
Li1 Li13 Ge2 180.0(2) . 1_444
Li1 Li13 Ge2 70.5 4 1_444
Li1 Li13 Ge2 70.5 3 1_444
Li1 Li13 Ge2 70.5 2 1_444
Li1 Li13 Ge2 70.5 . 3_646
Li1 Li13 Ge2 70.5 4 3_646
Li1 Li13 Ge2 180.0(2) 3 3_646
Li1 Li13 Ge2 70.5 2 3_646
Ge2 Li13 Ge2 109.5 1_444 3_646
Li1 Li13 Ge2 70.5 . 4_466
Li1 Li13 Ge2 180.0(2) 4 4_466
Li1 Li13 Ge2 70.5 3 4_466
Li1 Li13 Ge2 70.5 2 4_466
Ge2 Li13 Ge2 109.5 1_444 4_466
Ge2 Li13 Ge2 109.5 3_646 4_466
Li1 Li13 Ge2 70.5 . 2_664
Li1 Li13 Ge2 70.5 4 2_664
Li1 Li13 Ge2 70.5 3 2_664
Li1 Li13 Ge2 180.0(2) 2 2_664
Ge2 Li13 Ge2 109.5 1_444 2_664
Ge2 Li13 Ge2 109.5 3_646 2_664
Ge2 Li13 Ge2 109.5 4_466 2_664
Li1 Li13 Li7 54.7 . .
Li1 Li13 Li7 54.7 4 .
Li1 Li13 Li7 125.3 3 .
Li1 Li13 Li7 125.3 2 .
Ge2 Li13 Li7 125.3 1_444 .
Ge2 Li13 Li7 54.7 3_646 .
Ge2 Li13 Li7 125.3 4_466 .
Ge2 Li13 Li7 54.7 2_664 .
Li1 Li13 Li7 125.3 . 10
Li1 Li13 Li7 54.7 4 10
Li1 Li13 Li7 54.7 3 10
Li1 Li13 Li7 125.3 2 10
Ge2 Li13 Li7 54.7 1_444 10
Ge2 Li13 Li7 125.3 3_646 10
Ge2 Li13 Li7 125.3 4_466 10
Ge2 Li13 Li7 54.7 2_664 10
Li7 Li13 Li7 90.0 . 10
Li1 Li13 Li7 125.3 . 2
Li1 Li13 Li7 125.3 4 2
Li1 Li13 Li7 54.7 3 2
Li1 Li13 Li7 54.7 2 2
Ge2 Li13 Li7 54.7 1_444 2
Ge2 Li13 Li7 125.3 3_646 2
Ge2 Li13 Li7 54.7 4_466 2
Ge2 Li13 Li7 125.3 2_664 2
Li7 Li13 Li7 180.0 . 2
Li7 Li13 Li7 90.0 10 2
Li1 Li13 Li7 54.7 . 5
Li1 Li13 Li7 125.3 4 5
Li1 Li13 Li7 54.7 3 5
Li1 Li13 Li7 125.3 2 5
Ge2 Li13 Li7 125.3 1_444 5
Ge2 Li13 Li7 125.3 3_646 5
Ge2 Li13 Li7 54.7 4_466 5
Ge2 Li13 Li7 54.7 2_664 5
Li7 Li13 Li7 90.0 . 5
Li7 Li13 Li7 90.0 10 5
Li7 Li13 Li7 90.0 2 5
loop_
_geom_bond_atom_site_label_1
_geom_bond_atom_site_label_2
_geom_bond_distance
_geom_bond_site_symmetry_2
Ge1 Li9 2.659(4) .
Ge1 Li9 2.659(4) 9
Ge1 Li9 2.659(4) 5
Ge1 Li1 2.813(7) .
Ge1 Li2 2.8839(14) 28
Ge1 Li2 2.8839(14) 74
Ge1 Li2 2.8839(14) 51
Ge1 Li8 2.898(3) 9
Ge1 Li8 2.898(3) 5
Ge1 Li8 2.898(3) .
Ge1 Li12 2.959(4) 9
Ge1 Li12 2.959(4) 5
Ge2 Li12 2.686(3) 10_666
Ge2 Li12 2.686(3) 6_666
Ge2 Li12 2.686(3) 2_666
Ge2 Li13 2.7243(3) 1_666
Ge2 Li7 2.734(3) 10_666
Ge2 Li7 2.734(3) 2_666
Ge2 Li7 2.734(3) 6_666
Ge2 Li6 2.780(6) .
Ge2 Li10 2.933(4) 2_665
Ge2 Li10 2.933(4) 6_566
Ge2 Li10 2.933(4) 10_656
Ge2 Li1 2.969(4) 4_666
Ge3 Li9 2.673(4) 6
Ge3 Li9 2.673(4) 5
Ge3 Li10 2.849(4) 8_655
Ge3 Li10 2.849(4) 7_655
Ge3 Li3 2.8546(16) 28
Ge3 Li3 2.8546(16) 25_544
Ge3 Li7 2.890(5) .
Ge3 Li11 2.977(2) 84
Ge3 Li11 2.977(2) 51
Ge3 Li11 2.977(2) 50_554
Ge4 Li12 2.680(3) 56
Ge4 Li12 2.680(3) 79
Ge4 Li11 2.709(3) 5
Ge4 Li11 2.709(3) 30
Ge4 Li8 2.723(5) 74
Ge4 Li6 2.8557(16) 75_646
Ge4 Li6 2.8557(16) 50_664
Ge4 Li10 3.053(3) 76_556
Ge4 Li10 3.053(3) 59_565
Ge4 Li10 3.053(3) 81_545
Li1 Li13 2.397(7) .
Li1 Li7 2.644(4) .
Li1 Li7 2.644(4) 9
Li1 Li7 2.644(4) 5
Li1 Li12 2.752(5) 9
Li1 Li12 2.752(5) 5
Li1 Li12 2.752(5) .
Li1 Ge2 2.969(4) 2_664
Li1 Ge2 2.969(4) 4_466
Li1 Ge2 2.969(4) 3_646
Li2 Li8 2.711(4) 58
Li2 Li8 2.711(4) 30
Li2 Li8 2.711(4) 74
Li2 Li2 2.832(8) 28
Li2 Li2 2.832(9) 74
Li2 Li2 2.832(8) 51
Li2 Ge1 2.8838(14) 74
Li2 Ge1 2.8838(14) 28
Li2 Ge1 2.8838(14) 51
Li2 Li9 2.919(5) 58
Li2 Li9 2.919(5) 74
Li2 Li9 2.919(5) 30
Li3 Li4 2.724(5) 4_566
Li3 Li4 2.724(5) 3_656
Li3 Li4 2.724(5) 2_665
Li3 Li11 2.733(3) 58
Li3 Li11 2.733(3) 30
Li3 Li11 2.733(3) 74
Li3 Ge3 2.8546(16) 81
Li3 Ge3 2.8546(16) 53
Li3 Ge3 2.8546(16) 25
Li3 Li9 2.933(5) 74
Li3 Li9 2.933(5) 58
Li3 Li9 2.933(5) 30
Li4 Li11 2.682(6) 57
Li4 Li11 2.682(6) 29
Li4 Li11 2.682(6) 73
Li4 Li3 2.724(5) 4_566
Li4 Li3 2.724(5) 2_665
Li4 Li3 2.724(5) 3_656
Li4 Li4 3.068(10) 2_665
Li4 Li4 3.068(10) 4_566
Li4 Li4 3.068(10) 3_656
Li5 Li6 2.756(5) 28_566
Li5 Li6 2.756(5) 51_656
Li5 Li6 2.756(5) 74_665
Li5 Li10 2.960(5) 57
Li5 Li10 2.960(5) 29
Li5 Li10 2.960(5) 73
Li5 Li11 3.274(6) 57
Li5 Li11 3.274(6) 29
Li5 Li11 3.274(6) 73
Li6 Li10 2.486(5) 10_656
Li6 Li10 2.486(5) 6_566
Li6 Li10 2.486(5) 2_665
Li6 Li5 2.756(5) 28_566
Li6 Li5 2.756(5) 51_656
Li6 Li5 2.756(5) 74_665
Li6 Ge4 2.8557(16) 34_656
Li6 Ge4 2.8557(16) 78_566
Li6 Ge4 2.8557(16) 50_665
Li6 Li12 3.232(5) 10_666
Li6 Li12 3.232(5) 2_666
Li7 Li1 2.644(4) 4
Li7 Ge2 2.734(3) 3_646
Li7 Ge2 2.734(3) 2_664
Li7 Li10 2.739(5) 8_655
Li7 Li10 2.739(5) 7_655
Li7 Li9 3.017(6) 5
Li7 Li9 3.017(6) 6
Li7 Li12 3.087(2) .
Li7 Li12 3.087(2) 11
Li7 Li12 3.087(2) 4
Li8 Li12 2.667(4) 5
Li8 Li12 2.667(4) 30
Li8 Li2 2.711(4) 51
Li8 Li2 2.711(4) 74
Li8 Ge4 2.723(5) 74
Li8 Ge1 2.898(3) 28
Li8 Li9 3.019(3) .
Li8 Li9 3.019(3) 28
Li8 Li9 3.019(3) 35
Li8 Li9 3.019(3) 9
Li8 Li11 3.107(5) 56
Li9 Ge3 2.673(4) 9
Li9 Li12 2.848(3) 9
Li9 Li12 2.848(3) 5
Li9 Li11 2.883(3) 35
Li9 Li11 2.883(3) 56
Li9 Li2 2.919(5) 74
Li9 Li3 2.933(5) 74
Li9 Li8 3.019(3) 5
Li9 Li7 3.017(6) 9
Li9 Li10 3.439(4) 3_556
Li10 Li6 2.486(5) 2_665
Li10 Li12 2.642(3) 11_556
Li10 Li12 2.642(3) 8_556
Li10 Li11 2.690(3) 33_545
Li10 Li11 2.690(3) 53_455
Li10 Li7 2.739(5) 10_556
Li10 Ge3 2.849(4) 10_556
Li10 Ge2 2.933(4) 2_665
Li10 Li5 2.960(5) 73_445
Li10 Ge4 3.053(3) 49_455
Li10 Ge4 3.053(3) 29_545
Li10 Li9 3.439(4) 3_556
Li11 Li4 2.682(6) 73_445
Li11 Li10 2.690(3) 33_545
Li11 Li10 2.690(3) 53_455
Li11 Ge4 2.709(3) 9
Li11 Li3 2.733(3) 74
Li11 Li9 2.883(3) 35
Li11 Li9 2.883(3) 56
Li11 Ge3 2.977(2) 30
Li11 Ge3 2.977(2) 50
Li11 Li8 3.107(5) 58
Li11 Li5 3.274(6) 73_445
Li11 Li12 3.456(4) 28
Li12 Li10 2.642(3) 11_565
Li12 Li10 2.642(3) 8_655
Li12 Li8 2.668(4) 9
Li12 Ge4 2.680(3) 58
Li12 Ge2 2.686(3) 2_664
Li12 Li9 2.848(3) 9
Li12 Li9 2.848(3) 5
Li12 Li7 3.087(2) 5
Li12 Li6 3.232(5) 2_664
Li13 Li1 2.397(7) 4
Li13 Li1 2.397(7) 3
Li13 Li1 2.397(7) 2
Li13 Ge2 2.7244(3) 1_444
Li13 Ge2 2.7244(3) 3_646
Li13 Ge2 2.7244(3) 4_466
Li13 Ge2 2.7244(3) 2_664
Li13 Li7 3.162(5) 10
Li13 Li7 3.162(5) 2
Li13 Li7 3.162(5) 5
