#------------------------------------------------------------------------------
#$Date: 2016-01-03 14:18:05 +0200 (Sun, 03 Jan 2016) $
#$Revision: 173351 $
#$URL: svn://www.crystallography.net/cod/cif/2/10/73/2107379.cif $
#------------------------------------------------------------------------------
#
# This file is available in the Crystallography Open Database (COD),
# http://www.crystallography.net/. The original data for this entry
# were provided by IUCr Journals, http://journals.iucr.org/.
#
# The file may be used within the scientific community so long as
# proper attribution is given to the journal article from which the
# data were obtained.
#
data_2107379
loop_
_publ_author_name
'Cheng Horng, Y.'
'Franzen, H.F.'
_publ_section_title
;
 The crystal structure of Zr9 S2
;
_journal_name_full               'Acta Crystallographica B (24,1968-38,1982)'
_journal_page_first              1399
_journal_page_last               1404
_journal_volume                  28
_journal_year                    1972
_chemical_formula_sum            'S2 Zr9'
_chemical_name_systematic        'Zr9 S2'
_space_group_IT_number           141
_symmetry_space_group_name_Hall  '-I 4bd 2'
_symmetry_space_group_name_H-M   'I 41/a m d :2'
_cell_angle_alpha                90
_cell_angle_beta                 90
_cell_angle_gamma                90
_cell_formula_units_Z            8
_cell_length_a                   9.752
_cell_length_b                   9.752
_cell_length_c                   19.216
_cell_volume                     1827.471
_citation_journal_id_ASTM        ACBCAR
_cod_data_source_file            ChengHorng_ACBCAR_1972_53.cif
_cod_data_source_block           S2Zr9
_cod_original_cell_volume        1827.47
_cod_database_code               2107379
loop_
_symmetry_equiv_pos_as_xyz
x,y,z
-y+1/4,x+3/4,z+1/4
-x+1/2,-y,z+1/2
y+1/4,-x+1/4,z+3/4
x,-y,-z
y+1/4,x+3/4,-z+1/4
-x+1/2,y,-z+1/2
-y+1/4,-x+1/4,-z+3/4
-x,-y,-z
y-1/4,-x-3/4,-z-1/4
x-1/2,y,-z-1/2
-y-1/4,x-1/4,-z-3/4
-x,y,z
-y-1/4,-x-3/4,z-1/4
x-1/2,-y,z-1/2
y-1/4,x-1/4,z-3/4
x+1/2,y+1/2,z+1/2
-y+3/4,x+5/4,z+3/4
-x+1,-y+1/2,z+1
y+3/4,-x+3/4,z+5/4
x+1/2,-y+1/2,-z+1/2
y+3/4,x+5/4,-z+3/4
-x+1,y+1/2,-z+1
-y+3/4,-x+3/4,-z+5/4
-x+1/2,-y+1/2,-z+1/2
y+1/4,-x-1/4,-z+1/4
x,y+1/2,-z
-y+1/4,x+1/4,-z-1/4
-x+1/2,y+1/2,z+1/2
-y+1/4,-x-1/4,z+1/4
x,-y+1/2,z
y+1/4,x+1/4,z-1/4
loop_
_atom_site_label
_atom_site_type_symbol
_atom_site_fract_x
_atom_site_fract_y
_atom_site_fract_z
_atom_site_occupancy
_atom_site_U_iso_or_equiv
Zr3 Zr 0 0.0789 -0.4309 1 0.0
Zr4 Zr 0 -0.0289 0.1422 1 0.0
S1 S 0.2723 0.5223 0.875 1 0.0
Zr2 Zr 0 0.3981 0.3014 1 0.0
Zr1 Zr 0.1788 0 0 1 0.0
Zr5 Zr 0 0.25 0.0106 1 0.0
