#------------------------------------------------------------------------------
#$Date: 2016-03-21 01:21:50 +0200 (Mon, 21 Mar 2016) $
#$Revision: 178377 $
#$URL: svn://www.crystallography.net/cod/cif/4/00/08/4000813.cif $
#------------------------------------------------------------------------------
#
# This file is available in the Crystallography Open Database (COD),
# http://www.crystallography.net/
#
# All data on this site have been placed in the public domain by the
# contributors.
#
data_4000813
loop_
_publ_author_name
'Lafond, A.'
'Rocquefelte, X.'
'Paris, M.'
'Guillot-Deudon, C.'
'Jouenne, V.'
_publ_section_title
;
 Crystal Chemistry and Electronic Structure of the Photovoltaic Buffer
 Layer, (In1-xAlx)2S3
;
_journal_issue                   23
_journal_name_full               'Chemistry of Materials'
_journal_page_first              5168
_journal_paper_doi               10.1021/cm201830e
_journal_volume                  23
_journal_year                    2011
_chemical_formula_moiety         'In2 S3'
_chemical_formula_sum            'In2 S3'
_chemical_formula_weight         325.8
_chemical_name_systematic        ' ?'
_space_group_IT_number           141
_symmetry_cell_setting           tetragonal
_symmetry_Int_Tables_number      141
_symmetry_space_group_name_Hall  '-I 4bd 2'
_symmetry_space_group_name_H-M   'I 41/a m d :2'
_cell_angle_alpha                90
_cell_angle_beta                 90
_cell_angle_gamma                90
_cell_formula_units_Z            16
_cell_length_a                   7.6205(2)
_cell_length_b                   7.6205(2)
_cell_length_c                   32.3603(7)
_cell_measurement_reflns_used    rre
_cell_measurement_temperature    293
_cell_volume                     1879.23(8)
_computing_cell_refinement       unknown
_computing_data_collection       unknown
_computing_data_reduction        unknown
_computing_molecular_graphics    unknown
_computing_structure_solution    unknown
_diffrn_ambient_temperature      293
_diffrn_measured_fraction_theta_full 0.97
_diffrn_measured_fraction_theta_max 0.96
_diffrn_measurement_device       'four-cycle diffractometer'
_diffrn_measurement_device_type  'Nonius CCD'
_diffrn_radiation_monochromator  graphite
_diffrn_radiation_source         'X-ray tube'
_diffrn_radiation_type           'Mo K\a'
_diffrn_radiation_wavelength     0.71069
_diffrn_reflns_av_R_equivalents  0.0489
_diffrn_reflns_av_sigmaI/netI    0.0104
_diffrn_reflns_limit_h_max       8
_diffrn_reflns_limit_h_min       -12
_diffrn_reflns_limit_k_max       10
_diffrn_reflns_limit_k_min       -12
_diffrn_reflns_limit_l_max       51
_diffrn_reflns_limit_l_min       -38
_diffrn_reflns_number            13728
_diffrn_reflns_theta_full        34.75
_diffrn_reflns_theta_max         34.88
_diffrn_reflns_theta_min         6.56
_exptl_absorpt_coefficient_mu    10.946
_exptl_absorpt_correction_T_max  0.5186
_exptl_absorpt_correction_T_min  0.229
_exptl_absorpt_correction_type   gaussian
_exptl_absorpt_process_details
'Jana2006  (Petricek, Dusek & Palatinus, 2000)'
_exptl_crystal_density_diffrn    4.605
_exptl_crystal_description       block
_exptl_crystal_F_000             2336
_exptl_crystal_size_max          0.216
_exptl_crystal_size_mid          0.141
_exptl_crystal_size_min          0.067
_refine_diff_density_max         1.79
_refine_diff_density_min         -1.33
_refine_ls_extinction_coef       320(70)
_refine_ls_extinction_method
'B-C type 1 Gaussian isotropic (Becker & Coppens, 1974)'
_refine_ls_goodness_of_fit_gt    1.16
_refine_ls_goodness_of_fit_ref   1.17
_refine_ls_number_constraints    0
_refine_ls_number_parameters     36
_refine_ls_number_reflns         1426
_refine_ls_number_restraints     0
_refine_ls_R_factor_all          0.0325
_refine_ls_R_factor_gt           0.0229
_refine_ls_shift/su_max          0.0206
_refine_ls_shift/su_mean         0.0020
_refine_ls_structure_factor_coef Fsqd
_refine_ls_weighting_details     w=1/(\s^2^(I)+0.001936I^2^)
_refine_ls_weighting_scheme      sigma
_refine_ls_wR_factor_gt          0.0680
_refine_ls_wR_factor_ref         0.0755
_reflns_number_gt                1196
_reflns_number_total             1426
_reflns_threshold_expression     I>2\s(I)
_cod_data_source_file            cm201830e_si_002.cif
_cod_data_source_block           I
_cod_original_cell_volume        1879.22(8)
_cod_original_sg_symbol_H-M      'I 41/a m d'
_cod_database_code               4000813
loop_
_symmetry_equiv_pos_site_id
_symmetry_equiv_pos_as_xyz
1 x,y,z
2 -x+1/2,-y,z+1/2
3 -y+1/4,x+3/4,z+1/4
4 y+1/4,-x+1/4,z+3/4
5 -x+1/2,y,-z+1/2
6 x,-y,-z
7 y+1/4,x+3/4,-z+1/4
8 -y+1/4,-x+1/4,-z+3/4
9 -x,-y,-z
10 x+1/2,y,-z+1/2
11 y+3/4,-x+1/4,-z+3/4
12 -y+3/4,x+3/4,-z+1/4
13 x+1/2,-y,z+1/2
14 -x,y,z
15 -y+3/4,-x+1/4,z+3/4
16 y+3/4,x+3/4,z+1/4
17 x+1/2,y+1/2,z+1/2
18 -x,-y+1/2,z
19 -y+3/4,x+1/4,z+3/4
20 y+3/4,-x+3/4,z+1/4
21 -x,y+1/2,-z
22 x+1/2,-y+1/2,-z+1/2
23 y+3/4,x+1/4,-z+3/4
24 -y+3/4,-x+3/4,-z+1/4
25 -x+1/2,-y+1/2,-z+1/2
26 x,y+1/2,-z
27 y+1/4,-x+3/4,-z+1/4
28 -y+1/4,x+1/4,-z+3/4
29 x,-y+1/2,z
30 -x+1/2,y+1/2,z+1/2
31 -y+1/4,-x+3/4,z+1/4
32 y+1/4,x+1/4,z+3/4
loop_
_atom_site_label
_atom_site_type_symbol
_atom_site_fract_x
_atom_site_fract_y
_atom_site_fract_z
_atom_site_adp_type
_atom_site_U_iso_or_equiv
_atom_site_symmetry_multiplicity
_atom_site_occupancy
_atom_site_calc_flag
In8coh In 0 0 0 Uani 0.01581(18) 8 1 d
In16hoh In 0 -0.01962(7) 0.332463(13) Uani 0.01531(12) 16 1 d
In8etd In 0 0.25 0.204467(16) Uani 0.01153(12) 8 1 d
S1 S 0 0.5065(2) 0.25086(6) Uani 0.0119(4) 16 1 d
S2 S 0 0.0097(2) 0.07835(6) Uani 0.0141(4) 16 1 d
S3 S 0 0.0220(2) 0.41312(5) Uani 0.0106(3) 16 1 d
loop_
_atom_site_aniso_label
_atom_site_aniso_type_symbol
_atom_site_aniso_U_11
_atom_site_aniso_U_22
_atom_site_aniso_U_33
_atom_site_aniso_U_12
_atom_site_aniso_U_13
_atom_site_aniso_U_23
In8coh In 0.0190(3) 0.0155(3) 0.0129(3) 0 0 -0.00350(16)
In16hoh In 0.0194(2) 0.01187(18) 0.0147(2) 0 0 -0.00347(13)
In8etd In 0.0109(2) 0.0125(2) 0.0112(2) 0 0 0
S1 S 0.0149(8) 0.0088(7) 0.0121(8) 0 0 -0.0005(3)
S2 S 0.0149(6) 0.0135(7) 0.0137(6) 0 0 0.0004(4)
S3 S 0.0114(6) 0.0087(5) 0.0118(6) 0 0 0.0000(4)
loop_
_atom_type_symbol
_atom_type_scat_dispersion_real
_atom_type_scat_dispersion_imag
_atom_type_scat_source
In -0.7276 1.3100 'International Tables Vol C tables 4.2.6.8 and 6.1.1.1'
S 0.1246 0.1234 'International Tables Vol C tables 4.2.6.8 and 6.1.1.1'
loop_
_geom_angle_atom_site_label_1
_geom_angle_atom_site_label_2
_geom_angle_atom_site_label_3
_geom_angle_site_symmetry_1
_geom_angle_site_symmetry_3
_geom_angle
S1 In8coh S1 19_554 4_454 88.49(3)
S1 In8coh S1 19_554 7_445 180.0(5)
S1 In8coh S1 19_554 24_545 91.51(3)
S1 In8coh S2 19_554 . 88.20(5)
S1 In8coh S2 19_554 6_555 91.80(5)
S1 In8coh S1 4_454 7_445 91.51(3)
S1 In8coh S1 4_454 24_545 180.0(5)
S1 In8coh S2 4_454 . 88.20(5)
S1 In8coh S2 4_454 6_555 91.80(5)
S1 In8coh S1 7_445 24_545 88.49(3)
S1 In8coh S2 7_445 . 91.80(5)
S1 In8coh S2 7_445 6_555 88.20(5)
S1 In8coh S2 24_545 . 91.80(5)
S1 In8coh S2 24_545 6_555 88.20(5)
S2 In8coh S2 . 6_555 180.0(5)
S1 In16hoh S2 18_555 3_545 88.50(5)
S1 In16hoh S2 18_555 20_445 88.50(5)
S1 In16hoh S3 18_555 . 170.89(6)
S1 In16hoh S3 18_555 23_455 91.38(5)
S1 In16hoh S3 18_555 8_555 91.38(5)
S2 In16hoh S2 3_545 20_445 92.24(4)
S2 In16hoh S3 3_545 . 97.79(5)
S2 In16hoh S3 3_545 23_455 174.02(4)
S2 In16hoh S3 3_545 8_555 93.73(4)
S2 In16hoh S3 20_445 . 97.79(5)
S2 In16hoh S3 20_445 23_455 93.73(4)
S2 In16hoh S3 20_445 8_555 174.02(4)
S3 In16hoh S3 . 23_455 81.68(5)
S3 In16hoh S3 . 8_555 81.68(5)
S3 In16hoh S3 23_455 8_555 80.29(4)
S1 In8etd S1 . 18_555 104.94(6)
S1 In8etd S3 . 19_454 109.29(3)
S1 In8etd S3 . 4_554 109.29(3)
S1 In8etd S3 18_555 19_454 109.29(3)
S1 In8etd S3 18_555 4_554 109.29(3)
S3 In8etd S3 19_454 4_554 114.32(6)
In8coh S1 In8coh 3_555 20_455 91.50(5)
In8coh S1 In16hoh 3_555 18_555 89.09(5)
In8coh S1 In8etd 3_555 . 123.16(5)
In8coh S1 In16hoh 20_455 18_555 89.09(5)
In8coh S1 In8etd 20_455 . 123.16(5)
In16hoh S1 In8etd 18_555 . 129.71(7)
In8coh S2 In16hoh . 19_454 94.21(6)
In8coh S2 In16hoh . 4_554 94.21(6)
In16hoh S2 In16hoh 19_454 4_554 87.44(6)
In16hoh S3 In16hoh . 23_455 97.50(5)
In16hoh S3 In16hoh . 8_555 97.50(5)
In16hoh S3 In8etd . 3_545 115.91(7)
In16hoh S3 In16hoh 23_455 8_555 99.38(6)
In16hoh S3 In8etd 23_455 3_545 120.86(4)
In16hoh S3 In8etd 8_555 3_545 120.86(4)
loop_
_geom_bond_atom_site_label_1
_geom_bond_atom_site_label_2
_geom_bond_site_symmetry_2
_geom_bond_distance
In8coh S1 19_554 2.6598(11)
In8coh S1 4_454 2.6598(11)
In8coh S1 7_445 2.6598(11)
In8coh S1 24_545 2.6598(11)
In8coh S2 . 2.536(2)
In8coh S2 6_555 2.536(2)
In16hoh S1 18_555 2.6425(18)
In16hoh S2 3_545 2.5401(13)
In16hoh S2 20_445 2.5401(13)
In16hoh S3 . 2.6292(18)
In16hoh S3 23_455 2.6944(12)
In16hoh S3 8_555 2.6944(12)
In8etd S1 . 2.4646(17)
In8etd S1 18_555 2.4646(17)
In8etd S3 19_454 2.4674(18)
In8etd S3 4_554 2.4674(18)
loop_
_refln_index_h
_refln_index_k
_refln_index_l
_refln_F_squared_calc
_refln_F_squared_meas
_refln_F_squared_sigma
_refln_observed_status
_jana_refln_twin_domain
-2 2 0 1096671.88 1085544.75 5758.44 o 1
2 2 0 977696.19 1001194.62 7345.02 o 1
-2 4 0 51386.26 49570.69 519.86 o 1
0 4 0 1689709.88 1635121.88 4865.47 o 1
2 4 0 50972.59 49997.30 768.91 o 1
4 4 0 1069649.12 1060576.25 10517.57 o 1
-6 6 0 162117.52 159192.86 1702.03 o 1
-4 6 0 28789.49 26994.16 438.30 o 1
-2 6 0 366220.97 369700.84 1522.91 o 1
0 6 0 48741.94 48340.34 1050.12 o 1
2 6 0 365867.06 363648.38 3064.34 o 1
4 6 0 28276.28 27647.91 547.09 o 1
6 6 0 164906.92 163656.59 2715.75 o 1
-8 8 0 128172.76 127151.48 1060.44 o 1
-6 8 0 6868.88 6752.54 172.65 o 1
-4 8 0 343997.31 356566.66 4044.07 o 1
-2 8 0 7793.84 8677.71 797.44 o 1
0 8 0 491799.44 458775.28 3654.91 o 1
2 8 0 7654.97 7185.71 526.67 o 1
4 8 0 343152.41 353564.94 1789.64 o 1
6 8 0 6588.95 6534.66 286.61 o 1
8 8 0 128058.58 128833.20 1666.88 o 1
-6 10 0 39434.36 37400.37 680.29 o 1
-4 10 0 14288.54 14625.18 540.48 o 1
0 10 0 20425.20 21909.39 465.97 o 1
2 10 0 78411.04 83004.66 926.96 o 1
4 10 0 13957.10 14434.12 426.89 o 1
6 10 0 40928.69 41553.58 985.36 o 1
-2 12 0 313.84 336.11 199.33 < 1
0 12 0 92396.18 89086.60 1021.24 o 1
2 12 0 295.24 536.54 202.05 o 1
0 3 1 10055.63 10065.06 93.34 o 1
2 3 1 9666.42 9662.83 124.31 o 1
1 4 1 643.58 718.66 44.59 o 1
3 4 1 4445.71 4486.77 153.83 o 1
0 5 1 158.10 277.10 206.40 < 1
2 5 1 61.16 61.46 84.57 < 1
4 5 1 223.44 109.86 157.18 < 1
1 6 1 2320.50 2342.76 137.84 o 1
3 6 1 5684.87 6030.34 172.58 o 1
5 6 1 113.08 28.01 182.47 < 1
0 7 1 7461.41 6622.34 416.34 o 1
2 7 1 6980.82 6837.43 214.43 o 1
4 7 1 4350.13 3958.92 200.90 o 1
6 7 1 4698.24 4526.82 105.21 o 1
1 8 1 0.85 54.12 245.83 < 1
3 8 1 464.02 321.69 215.37 < 1
5 8 1 331.81 101.70 47.86 o 1
7 8 1 951.12 929.43 64.45 o 1
0 9 1 561.08 480.77 86.20 o 1
2 9 1 506.69 412.79 64.72 o 1
4 9 1 522.81 321.15 68.53 o 1
6 9 1 52.50 165.88 73.70 o 1
8 9 1 416.86 373.91 80.22 o 1
1 10 1 1948.55 2072.47 111.75 o 1
3 10 1 3136.38 3072.56 134.58 o 1
5 10 1 538.82 484.58 80.22 o 1
7 10 1 2581.30 2301.87 133.77 o 1
0 11 1 3351.79 3356.68 169.66 o 1
2 11 1 3004.58 3246.07 145.46 o 1
4 11 1 2275.54 2132.53 129.70 o 1
1 12 1 137.51 191.99 104.97 < 1
1 3 2 3848.71 3700.28 58.15 o 1
3 3 2 53.69 -81.31 119.65 < 1
0 4 2 14.10 660.81 294.51 o 1
2 4 2 14.27 8.16 78.32 < 1
1 5 2 17085.95 17550.27 186.96 o 1
3 5 2 6501.39 6335.55 150.27 o 1
5 5 2 14904.39 13404.21 353.06 o 1
0 6 2 23.17 582.77 264.33 o 1
2 6 2 12.47 -197.97 187.91 < 1
4 6 2 37.09 -73.15 115.85 < 1
1 7 2 71.03 -342.91 181.11 < 1
3 7 2 248.69 269.49 183.83 < 1
5 7 2 915.27 1113.25 194.42 o 1
7 7 2 465.00 434.00 75.05 o 1
0 8 2 52.91 1349.91 440.00 o 1
2 8 2 73.98 586.84 280.37 o 1
4 8 2 20.85 290.70 155.82 < 1
6 8 2 60.88 -129.44 52.48 < 1
1 9 2 7617.17 7749.23 153.29 o 1
3 9 2 4111.23 4113.59 110.92 o 1
5 9 2 7055.98 6783.82 135.37 o 1
7 9 2 1158.24 1137.44 81.03 o 1
0 10 2 50.18 182.47 101.98 < 1
2 10 2 22.65 124.00 73.42 < 1
4 10 2 49.14 25.02 84.30 < 1
6 10 2 6.17 105.51 113.40 < 1
1 11 2 20.56 -80.22 81.31 < 1
3 11 2 207.84 460.12 101.16 o 1
5 11 2 61.04 -132.71 104.97 < 1
0 12 2 69.18 254.53 128.63 < 1
2 12 2 102.77 13.05 96.54 < 1
-2 3 3 425131.16 418097.69 1175.69 o 1
0 3 3 28677.12 28787.84 157.16 o 1
2 3 3 414844.31 420428.38 1133.53 o 1
-3 4 3 14142.85 14064.96 243.83 o 1
-1 4 3 47344.02 46933.69 270.35 o 1
1 4 3 48012.28 47195.75 357.22 o 1
3 4 3 14348.09 15362.26 362.43 o 1
-4 5 3 41091.67 38370.80 432.57 o 1
-2 5 3 139117.92 137804.97 604.96 o 1
0 5 3 67056.80 66539.69 524.71 o 1
2 5 3 138620.75 140468.73 876.00 o 1
4 5 3 42212.07 43019.88 565.43 o 1
-5 6 3 54133.72 54506.08 501.08 o 1
-3 6 3 153974.64 154159.89 681.72 o 1
-1 6 3 143409.14 143403.97 755.34 o 1
1 6 3 142528.84 143426.22 881.60 o 1
3 6 3 154343.42 155420.81 1067.85 o 1
5 6 3 53892.89 50532.61 750.32 o 1
-6 7 3 80602.37 80264.79 403.14 o 1
-4 7 3 913.46 951.25 218.64 o 1
-2 7 3 165384.34 164369.92 836.89 o 1
0 7 3 1195.36 1361.02 320.88 o 1
2 7 3 165286.11 165403.02 1221.36 o 1
4 7 3 1016.64 532.69 346.15 < 1
6 7 3 80882.60 83105.17 612.31 o 1
-7 8 3 1072.25 1090.20 77.23 o 1
-5 8 3 13443.78 13180.96 160.69 o 1
-3 8 3 2734.93 2621.64 79.67 o 1
-1 8 3 10448.10 9115.57 491.84 o 1
1 8 3 10875.62 10404.80 426.74 o 1
3 8 3 2853.14 2852.78 431.78 o 1
5 8 3 14307.86 14511.87 272.03 o 1
7 8 3 1147.63 1094.78 126.99 o 1
-8 9 3 7769.44 7259.57 168.32 o 1
-6 9 3 11531.21 11171.97 196.30 o 1
-4 9 3 18433.43 17776.57 255.56 o 1
-2 9 3 23047.49 22521.05 418.35 o 1
0 9 3 25610.17 26148.35 327.49 o 1
2 9 3 23042.71 24409.12 340.31 o 1
4 9 3 19096.57 20775.21 337.25 o 1
6 9 3 11527.36 12198.35 276.23 o 1
8 9 3 8369.20 8219.64 250.37 o 1
-7 10 3 23360.01 21546.67 349.01 o 1
-5 10 3 12826.83 11403.05 312.10 o 1
-3 10 3 35989.94 36879.76 584.85 o 1
-1 10 3 29882.42 30507.97 526.10 o 1
1 10 3 29541.14 31379.50 398.43 o 1
3 10 3 36358.52 37437.14 463.21 o 1
5 10 3 12723.87 12883.32 285.47 o 1
7 10 3 23494.94 21682.69 534.10 o 1
-4 11 3 642.83 592.82 167.51 o 1
-2 11 3 46507.57 47779.04 703.20 o 1
0 11 3 133.27 162.89 110.14 < 1
2 11 3 46489.36 49342.05 545.55 o 1
4 11 3 622.40 615.67 158.81 o 1
-1 12 3 2137.83 2430.54 178.93 o 1
1 12 3 2280.80 1800.06 173.75 o 1
2 2 4 2887.20 2829.41 76.90 o 1
1 3 4 6360.97 6362.04 73.06 o 1
0 4 4 6487.19 6518.39 105.95 o 1
2 4 4 4285.91 4317.82 104.63 o 1
4 4 4 5215.63 5039.27 218.24 o 1
1 5 4 3331.27 3316.53 107.37 o 1
3 5 4 10774.50 11110.36 177.36 o 1
0 6 4 691.89 766.82 205.30 o 1
2 6 4 339.92 92.73 133.52 < 1
4 6 4 866.97 694.21 131.61 o 1
6 6 4 10.88 -56.56 251.27 < 1
1 7 4 7097.80 6604.09 214.16 o 1
3 7 4 1426.57 932.10 202.30 o 1
5 7 4 9161.37 9113.21 249.47 o 1
0 8 4 3945.84 3206.85 430.35 o 1
2 8 4 3155.41 2856.87 295.26 o 1
4 8 4 3487.03 3562.62 77.76 o 1
6 8 4 1130.09 1019.43 62.54 o 1
8 8 4 2475.62 2199.66 129.15 o 1
1 9 4 3011.93 3118.23 109.84 o 1
3 9 4 6142.94 6420.57 131.56 o 1
5 9 4 417.08 388.59 64.99 o 1
7 9 4 5312.84 5329.08 119.07 o 1
0 10 4 8.66 -112.31 92.73 < 1
2 10 4 23.48 137.60 78.59 < 1
4 10 4 4.35 129.44 81.04 < 1
6 10 4 69.62 76.69 100.62 < 1
1 11 4 3390.18 3376.24 122.08 o 1
3 11 4 1226.09 1197.53 110.67 o 1
5 11 4 4030.42 3706.43 142.19 o 1
0 12 4 2275.32 2566.21 177.01 o 1
2 12 4 2051.06 1687.45 114.20 o 1
1 2 5 2704.44 2599.95 58.15 o 1
0 3 5 16966.84 17484.83 128.18 o 1
2 3 5 13427.50 13630.58 123.95 o 1
1 4 5 2368.25 2507.19 64.43 o 1
3 4 5 10234.00 10658.41 156.42 o 1
0 5 5 197.62 436.18 124.82 o 1
2 5 5 309.35 122.64 108.77 < 1
4 5 5 61.49 205.31 112.58 < 1
1 6 5 771.98 916.09 127.80 o 1
3 6 5 4718.68 5040.52 191.90 o 1
5 6 5 161.68 26.65 147.66 < 1
0 7 5 12893.02 11894.82 491.40 o 1
2 7 5 10601.51 10474.97 218.17 o 1
4 7 5 9264.53 9053.99 249.19 o 1
6 7 5 5182.66 5026.61 94.06 o 1
1 8 5 1051.12 650.70 246.63 o 1
3 8 5 3771.05 3720.44 257.45 o 1
5 8 5 1.22 -72.61 48.41 < 1
7 8 5 4080.22 3848.03 96.79 o 1
0 9 5 709.41 696.68 101.16 o 1
2 9 5 960.39 947.65 83.21 o 1
4 9 5 445.01 356.50 67.98 o 1
6 9 5 509.37 404.63 71.52 o 1
8 9 5 104.21 -151.20 81.85 < 1
1 10 5 144.48 74.78 74.51 < 1
3 10 5 1114.98 961.78 104.15 o 1
5 10 5 56.76 -19.58 78.86 < 1
7 10 5 1569.27 1272.56 124.26 o 1
0 11 5 5599.96 6108.65 203.61 o 1
2 11 5 4490.36 4630.09 147.35 o 1
4 11 5 4350.47 4216.94 149.80 o 1
1 12 5 478.84 719.53 106.05 o 1
0 2 6 140971.94 136465.52 265.25 o 1
-3 3 6 51262.86 47861.82 485.19 o 1
-1 3 6 74371.06 74813.95 243.45 o 1
1 3 6 73980.43 74187.40 316.35 o 1
3 3 6 50940.40 49961.85 785.02 o 1
-2 4 6 93044.23 93109.11 485.25 o 1
0 4 6 251.17 599.89 60.10 o 1
2 4 6 93842.03 95882.05 571.36 o 1
-5 5 6 28961.38 27321.50 434.70 o 1
-3 5 6 36893.93 36335.31 341.69 o 1
-1 5 6 49953.90 50468.54 399.80 o 1
1 5 6 49607.49 49968.14 440.27 o 1
3 5 6 36461.84 35326.43 455.48 o 1
5 5 6 28297.77 28303.55 659.07 o 1
-4 6 6 33278.37 33502.75 390.31 o 1
-2 6 6 507.63 860.67 157.18 o 1
0 6 6 53128.44 53527.28 533.63 o 1
2 6 6 507.53 416.33 209.39 < 1
4 6 6 34695.38 34316.55 506.24 o 1
-7 7 6 6816.13 6468.40 195.49 o 1
-5 7 6 13724.35 13750.52 184.31 o 1
-3 7 6 15728.39 15155.21 303.37 o 1
-1 7 6 20580.71 19219.87 431.61 o 1
1 7 6 20402.45 20093.42 416.42 o 1
3 7 6 15518.52 16175.07 504.28 o 1
5 7 6 13333.46 12345.31 520.13 o 1
7 7 6 6583.34 6071.84 264.86 o 1
-6 8 6 13287.42 13419.63 180.82 o 1
-4 8 6 466.39 475.89 53.57 o 1
-2 8 6 21079.54 20047.47 592.88 o 1
0 8 6 1154.44 217.27 391.04 < 1
2 8 6 21741.84 22160.84 545.30 o 1
4 8 6 466.08 419.87 92.73 o 1
6 8 6 14403.18 13888.88 234.80 o 1
-7 9 6 5873.33 5468.41 160.69 o 1
-5 9 6 10561.30 10052.06 201.99 o 1
-3 9 6 11539.30 11946.68 278.12 o 1
-1 9 6 14301.35 14605.12 346.62 o 1
1 9 6 14148.98 14959.98 262.09 o 1
3 9 6 11323.45 12065.33 257.48 o 1
5 9 6 10175.45 10496.78 249.08 o 1
7 9 6 5613.65 5421.25 207.21 o 1
-6 10 6 284.17 588.20 117.75 o 1
-4 10 6 9595.37 9642.70 286.33 o 1
-2 10 6 1181.99 893.57 132.97 o 1
0 10 6 10960.76 11423.11 242.77 o 1
2 10 6 1181.37 1141.02 128.08 o 1
4 10 6 10303.17 10762.73 264.20 o 1
6 10 6 283.84 95.18 147.12 < 1
-5 11 6 3832.99 3803.52 219.43 o 1
-3 11 6 3800.05 3588.00 205.57 o 1
-1 11 6 4638.50 4820.31 168.32 o 1
1 11 6 4577.75 4815.27 196.33 o 1
3 11 6 3718.18 4187.47 196.88 o 1
5 11 6 3671.98 3304.84 190.08 o 1
-2 12 6 5325.07 5201.52 216.45 o 1
0 12 6 1193.01 738.02 174.58 o 1
2 12 6 5577.17 5428.89 237.62 o 1
1 2 7 4248.12 4295.27 43.74 o 1
0 3 7 401.85 412.77 44.87 o 1
2 3 7 302.75 312.71 47.59 o 1
1 4 7 2211.48 2213.41 66.60 o 1
3 4 7 335.93 264.86 83.48 o 1
0 5 7 11023.60 11065.97 223.51 o 1
2 5 7 10106.53 10106.29 172.48 o 1
4 5 7 6576.72 6760.32 149.47 o 1
1 6 7 2076.21 2416.50 128.87 o 1
3 6 7 15.31 136.79 148.48 < 1
5 6 7 5186.88 4947.01 186.20 o 1
0 7 7 2538.19 2520.88 288.74 o 1
2 7 7 2099.90 2227.34 151.17 o 1
4 7 7 1888.61 1689.86 206.92 o 1
6 7 7 803.10 936.78 54.93 o 1
1 8 7 357.71 -60.10 261.06 < 1
3 8 7 228.71 -65.54 195.25 < 1
5 8 7 1885.95 1709.47 75.86 o 1
7 8 7 903.58 965.60 70.97 o 1
0 9 7 6685.88 7237.96 183.48 o 1
2 9 7 6590.21 6892.10 142.16 o 1
4 9 7 4738.88 4638.66 122.61 o 1
6 9 7 3968.01 3970.69 107.39 o 1
8 9 7 1819.14 1791.35 105.23 o 1
1 10 7 901.16 980.02 73.15 o 1
3 10 7 25.12 16.04 77.50 < 1
5 10 7 1998.41 1822.04 92.45 o 1
0 11 7 1542.63 1467.79 138.13 o 1
2 11 7 1219.01 1503.44 113.12 o 1
4 11 7 1201.38 953.35 110.67 o 1
1 12 7 15.95 114.21 103.61 < 1
0 2 8 13915.00 14238.58 86.72 o 1
2 2 8 9368.47 9250.55 99.87 o 1
1 3 8 5968.83 6176.14 54.06 o 1
0 4 8 9260.80 9378.07 111.88 o 1
2 4 8 6526.96 6574.26 109.49 o 1
4 4 8 4884.81 4837.03 184.27 o 1
1 5 8 3388.65 3323.95 107.37 o 1
3 5 8 10817.30 11077.99 174.65 o 1
0 6 8 7546.86 8132.53 243.48 o 1
2 6 8 5670.94 5659.69 171.50 o 1
4 6 8 4496.29 4474.16 185.39 o 1
6 6 8 4120.30 3792.68 281.37 o 1
1 7 8 6718.13 6557.93 205.47 o 1
3 7 8 1286.03 1331.00 209.91 o 1
5 7 8 9126.12 9412.54 235.88 o 1
0 8 8 1567.07 2015.66 369.80 o 1
2 8 8 1061.21 1161.91 278.44 o 1
4 8 8 945.09 1013.18 59.55 o 1
6 8 8 1116.91 1050.43 68.52 o 1
8 8 8 212.23 174.58 95.45 < 1
1 9 8 3253.82 3194.30 93.80 o 1
3 9 8 6524.81 6444.98 145.69 o 1
5 9 8 460.57 267.58 61.73 o 1
7 9 8 5502.72 5647.67 133.21 o 1
0 10 8 4033.93 4500.54 146.81 o 1
2 10 8 3275.63 3238.38 119.36 o 1
4 10 8 2814.08 2934.77 113.65 o 1
6 10 8 2526.93 2394.61 128.88 o 1
1 11 8 3030.40 3063.92 111.75 o 1
3 11 8 1009.20 1166.00 106.59 o 1
5 11 8 3803.42 3724.16 158.78 o 1
0 12 8 102.32 140.86 138.69 < 1
-1 2 9 28951.26 28447.21 105.57 o 1
1 2 9 28688.91 28249.49 166.59 o 1
-2 3 9 47273.95 47080.73 195.73 o 1
0 3 9 243466.16 248956.28 471.80 o 1
2 3 9 47957.19 47768.83 320.16 o 1
-3 4 9 139903.75 139499.08 549.69 o 1
-1 4 9 242539.56 242230.34 558.77 o 1
1 4 9 242814.58 246304.00 614.71 o 1
3 4 9 138596.67 138498.88 705.88 o 1
-4 5 9 153849.03 150804.28 665.00 o 1
-2 5 9 2696.31 2934.31 131.88 o 1
0 5 9 241118.06 239790.97 799.13 o 1
2 5 9 2772.68 2728.73 169.66 o 1
4 5 9 154381.77 153129.59 887.69 o 1
-5 6 9 922.49 766.60 181.66 o 1
-3 6 9 17659.66 17258.67 265.89 o 1
-1 6 9 8652.82 8112.60 232.14 o 1
1 6 9 8410.81 7945.17 217.77 o 1
3 6 9 18667.03 18221.82 423.72 o 1
5 6 9 1017.70 1046.08 248.54 o 1
-6 7 9 13374.27 13889.24 190.07 o 1
-4 7 9 32887.73 33233.81 436.67 o 1
-2 7 9 25002.79 24315.11 323.72 o 1
0 7 9 49949.07 47027.49 695.55 o 1
2 7 9 25570.87 26465.35 512.09 o 1
4 7 9 32719.05 32858.23 601.86 o 1
6 7 9 14301.18 14418.50 228.55 o 1
-7 8 9 11673.18 11318.65 184.05 o 1
-5 8 9 52073.04 54186.84 337.42 o 1
-3 8 9 38289.00 38330.88 246.12 o 1
-1 8 9 64045.73 61587.95 790.30 o 1
1 8 9 65011.07 61533.19 658.39 o 1
3 8 9 37723.97 36300.87 629.01 o 1
5 8 9 52776.23 55118.06 446.16 o 1
7 8 9 11543.26 11238.09 261.28 o 1
-8 9 9 23273.84 22431.90 288.14 o 1
-6 9 9 996.88 825.59 109.05 o 1
-4 9 9 55599.87 55724.34 394.69 o 1
-2 9 9 306.12 557.75 106.87 o 1
0 9 9 76143.08 78429.02 492.77 o 1
2 9 9 296.60 499.82 97.90 o 1
4 9 9 55860.03 59079.89 485.06 o 1
6 9 9 986.71 864.21 128.35 o 1
8 9 9 23486.20 22386.68 374.01 o 1
-5 10 9 805.80 617.30 135.15 o 1
-3 10 9 4962.12 4953.80 214.28 o 1
-1 10 9 2038.17 2510.34 122.09 o 1
1 10 9 1935.74 2322.02 143.58 o 1
3 10 9 5453.20 5077.26 175.08 o 1
5 10 9 861.23 772.29 119.65 o 1
-4 11 9 5688.33 6084.28 277.62 o 1
-2 11 9 8000.09 8022.03 251.24 o 1
0 11 9 7593.99 7955.38 229.49 o 1
2 11 9 8227.37 8173.27 222.93 o 1
4 11 9 5674.72 5551.11 198.50 o 1
-1 12 9 12879.99 12499.54 281.67 o 1
1 12 9 13199.74 12960.85 287.33 o 1
1 1 10 220.05 251.80 19.03 o 1
0 2 10 52.48 56.83 24.47 o 1
1 3 10 4971.29 5051.23 47.82 o 1
3 3 10 12280.47 12928.85 190.56 o 1
0 4 10 5.98 94.36 72.88 < 1
2 4 10 78.78 189.27 67.98 o 1
1 5 10 1044.10 1126.51 86.47 o 1
3 5 10 105.11 -52.48 94.09 < 1
5 5 10 2657.74 2589.37 234.36 o 1
0 6 10 119.34 19.31 134.88 < 1
2 6 10 22.40 208.31 158.54 < 1
4 6 10 102.30 94.63 124.00 < 1
1 7 10 5237.46 5468.16 179.13 o 1
3 7 10 8656.88 8852.95 245.39 o 1
5 7 10 1057.47 942.74 155.81 o 1
7 7 10 6357.48 6364.42 165.27 o 1
0 8 10 17.02 60.37 327.14 < 1
2 8 10 76.46 -64.72 228.70 < 1
4 8 10 6.28 82.67 93.55 < 1
6 8 10 73.45 -52.76 59.83 < 1
1 9 10 1244.03 1395.75 73.96 o 1
3 9 10 173.37 245.29 64.99 o 1
5 9 10 1816.07 1955.56 83.20 o 1
7 9 10 38.05 221.09 77.50 o 1
0 10 10 134.35 286.62 89.74 o 1
2 10 10 46.01 -71.25 299.95 < 1
4 10 10 110.84 198.24 85.66 o 1
6 10 10 12.73 -104.70 208.85 < 1
1 11 10 2719.23 2891.04 108.21 o 1
3 11 10 3747.40 3865.79 144.09 o 1
0 12 10 18.47 -154.19 146.85 < 1
0 1 11 6656.79 6364.56 60.81 o 1
1 2 11 12509.32 12917.06 59.13 o 1
0 3 11 305.76 267.03 54.39 o 1
2 3 11 2321.24 2362.58 58.45 o 1
1 4 11 5236.77 5497.07 69.84 o 1
3 4 11 591.38 688.50 83.48 o 1
0 5 11 9040.10 8787.19 155.38 o 1
2 5 11 13279.78 13674.50 151.79 o 1
4 5 11 7030.24 7098.09 169.31 o 1
1 6 11 3127.84 3200.83 130.22 o 1
3 6 11 462.82 256.97 132.43 < 1
5 6 11 4663.09 4362.01 187.57 o 1
0 7 11 271.02 447.06 227.61 < 1
2 7 11 28.38 -121.56 145.76 < 1
4 7 11 41.91 498.74 203.14 o 1
6 7 11 2.53 -41.33 46.77 < 1
1 8 11 3444.14 3708.04 233.81 o 1
3 8 11 1109.49 1483.85 167.77 o 1
5 8 11 4227.98 4215.80 93.25 o 1
7 8 11 109.00 18.22 66.62 < 1
0 9 11 4782.01 4959.37 142.18 o 1
2 9 11 6837.63 7428.67 138.89 o 1
4 9 11 4084.91 3926.02 102.49 o 1
6 9 11 3150.79 3416.53 107.12 o 1
1 10 11 254.81 224.62 69.62 o 1
3 10 11 0.67 105.51 87.56 < 1
5 10 11 714.27 682.54 83.75 o 1
0 11 11 332.39 358.14 120.47 o 1
2 11 11 26.28 -137.33 91.64 < 1
4 11 11 141.04 123.19 106.87 < 1
0 0 12 1033156.94 1070374.88 6702.19 o 1
-2 2 12 1745556.38 1628977.00 4977.89 o 1
0 2 12 74341.03 75697.53 174.29 o 1
2 2 12 1578292.38 1593130.88 5204.88 o 1
-1 3 12 239.40 797.05 45.69 o 1
1 3 12 249.95 879.17 51.94 o 1
-4 4 12 366165.03 376231.66 1600.26 o 1
-2 4 12 49957.52 50478.05 304.57 o 1
0 4 12 589191.06 597157.50 1126.99 o 1
2 4 12 49586.54 50852.14 417.35 o 1
4 4 12 364997.09 378067.28 1856.88 o 1
-3 5 12 482.16 577.06 123.46 o 1
-1 5 12 148.53 355.97 112.04 o 1
1 5 12 142.38 284.99 106.33 o 1
3 5 12 504.82 790.24 168.87 o 1
-6 6 12 344356.72 361468.56 1884.63 o 1
-4 6 12 15880.72 15148.69 319.93 o 1
-2 6 12 722297.56 735272.25 1927.39 o 1
0 6 12 19096.24 19278.01 257.91 o 1
2 6 12 716109.50 722656.31 2043.10 o 1
4 6 12 15537.00 13991.62 349.33 o 1
6 6 12 343410.69 343345.19 2158.37 o 1
-5 7 12 442.61 515.33 64.72 o 1
-3 7 12 56.19 319.26 200.15 < 1
-1 7 12 299.19 3.81 196.88 < 1
1 7 12 311.04 240.94 222.44 < 1
3 7 12 54.91 352.16 273.30 < 1
5 7 12 463.54 693.16 84.30 o 1
-8 8 12 39345.86 38869.69 503.66 o 1
-6 8 12 10526.14 10492.33 181.61 o 1
-4 8 12 111176.22 112927.91 487.97 o 1
-2 8 12 23840.74 24086.71 463.68 o 1
0 8 12 161632.22 161159.66 996.88 o 1
2 8 12 23587.86 24024.25 529.25 o 1
4 8 12 112881.16 117817.59 574.29 o 1
6 8 12 10172.28 10706.18 245.81 o 1
8 8 12 40921.88 41299.63 685.79 o 1
-7 9 12 270.01 161.26 104.15 < 1
-5 9 12 20.75 -63.09 86.75 < 1
-3 9 12 316.01 168.60 111.22 < 1
-1 9 12 155.09 336.66 97.35 o 1
1 9 12 149.70 449.24 90.28 o 1
3 9 12 330.27 495.20 98.99 o 1
5 9 12 20.51 128.63 91.10 < 1
7 9 12 282.32 636.34 137.87 o 1
-6 10 12 93289.70 92284.95 679.40 o 1
-4 10 12 1962.36 2249.34 202.58 o 1
-2 10 12 174603.34 187478.14 1185.31 o 1
0 10 12 1648.37 1703.91 126.72 o 1
2 10 12 174477.22 185084.44 991.50 o 1
4 10 12 1862.29 2178.48 136.78 o 1
6 10 12 93184.09 89820.01 1007.97 o 1
-3 11 12 45.42 277.38 183.83 < 1
-1 11 12 137.79 -89.74 113.94 < 1
1 11 12 139.92 309.47 121.83 o 1
3 11 12 46.60 127.81 127.81 < 1
0 1 13 3677.95 3621.83 42.12 o 1
1 2 13 193.65 183.28 23.66 o 1
0 3 13 0.18 -20.94 46.50 < 1
2 3 13 1262.70 1306.70 48.94 o 1
1 4 13 3037.97 2985.27 60.35 o 1
3 4 13 95.46 -41.06 87.56 < 1
0 5 13 6343.06 6114.92 156.26 o 1
2 5 13 2247.69 2175.54 95.70 o 1
4 5 13 5001.91 4803.25 150.04 o 1
1 6 13 22.42 282.27 110.95 o 1
3 6 13 1102.30 846.74 153.36 o 1
5 6 13 429.38 378.80 173.22 o 1
0 7 13 820.23 591.16 197.41 o 1
2 7 13 2220.33 2500.84 172.92 o 1
4 7 13 299.83 462.56 267.04 < 1
6 7 13 1596.48 1691.02 68.25 o 1
1 8 13 2235.33 2705.07 247.15 o 1
3 8 13 537.26 446.78 109.32 o 1
5 8 13 2996.29 2997.82 85.64 o 1
7 8 13 2.80 0.00 67.17 < 1
0 9 13 3786.07 4094.88 163.39 o 1
2 9 13 2051.99 1954.96 91.36 o 1
4 9 13 3182.11 3395.55 112.29 o 1
6 9 13 745.16 628.42 82.94 o 1
1 10 13 265.63 82.12 72.06 < 1
3 10 13 834.55 956.36 101.97 o 1
5 10 13 0.61 -65.27 90.83 < 1
0 11 13 838.06 973.22 128.35 o 1
2 11 13 1338.44 1377.53 102.24 o 1
4 11 13 477.69 285.53 113.67 o 1
1 1 14 9405.00 9477.08 69.76 o 1
0 2 14 218.67 212.65 26.92 o 1
1 3 14 15637.26 15957.54 84.11 o 1
3 3 14 21073.00 21268.50 238.39 o 1
0 4 14 6.83 66.63 95.99 < 1
2 4 14 68.40 69.62 75.33 < 1
1 5 14 1550.63 1473.13 81.57 o 1
3 5 14 4044.87 4138.36 133.74 o 1
5 5 14 165.97 246.37 187.09 < 1
0 6 14 9.04 -256.17 159.36 < 1
2 6 14 22.20 221.63 197.16 < 1
4 6 14 0.70 229.52 160.17 < 1
1 7 14 9618.73 9869.89 223.36 o 1
3 7 14 11808.20 11742.53 254.58 o 1
5 7 14 3805.65 3991.04 85.09 o 1
7 7 14 7566.16 7282.12 175.05 o 1
0 8 14 30.47 611.32 330.68 < 1
2 8 14 0.19 -644.77 247.74 < 1
4 8 14 12.63 -86.48 93.00 < 1
6 8 14 7.71 -169.15 63.63 < 1
1 9 14 173.92 202.86 66.35 o 1
3 9 14 676.01 768.47 78.86 o 1
5 9 14 8.22 100.89 64.45 < 1
7 9 14 960.46 966.69 87.83 o 1
0 10 14 25.40 188.45 107.14 < 1
2 10 14 60.30 50.31 222.72 < 1
4 10 14 26.13 103.34 85.66 < 1
6 10 14 17.31 -65.27 209.39 < 1
1 11 14 4031.65 4407.01 125.60 o 1
3 11 14 4619.32 4784.44 154.69 o 1
0 1 15 421013.56 417074.69 624.10 o 1
-1 2 15 47180.90 47307.02 144.40 o 1
1 2 15 47205.95 47500.05 177.14 o 1
-2 3 15 66653.07 67680.51 251.28 o 1
0 3 15 242053.83 245837.83 495.95 o 1
2 3 15 66944.71 66014.48 341.17 o 1
-3 4 15 142735.53 143854.00 599.42 o 1
-1 4 15 241408.09 245030.30 605.84 o 1
1 4 15 240856.17 244317.64 583.29 o 1
3 4 15 142217.98 143052.98 803.45 o 1
-4 5 15 165663.61 165345.62 730.51 o 1
-2 5 15 8202.74 8367.53 186.53 o 1
0 5 15 253458.08 258128.44 907.85 o 1
2 5 15 8362.85 8890.72 230.54 o 1
4 5 15 165228.06 168175.48 930.70 o 1
-5 6 15 2637.63 2436.30 253.99 o 1
-3 6 15 24995.43 25640.52 363.68 o 1
-1 6 15 14281.93 14255.95 305.82 o 1
1 6 15 14359.94 14795.82 265.02 o 1
3 6 15 25570.04 25504.20 400.14 o 1
5 6 15 2843.16 3353.64 291.21 o 1
-6 7 15 18422.29 18994.94 222.39 o 1
-4 7 15 37620.10 36091.02 501.39 o 1
-2 7 15 38175.42 38851.55 569.52 o 1
0 7 15 56788.81 56674.79 453.84 o 1
2 7 15 38578.71 39244.25 542.39 o 1
4 7 15 37653.07 37419.65 587.70 o 1
6 7 15 19098.98 19721.84 309.81 o 1
-7 8 15 12672.87 12398.66 206.36 o 1
-5 8 15 55890.80 57481.34 387.62 o 1
-3 8 15 40010.28 39853.79 288.55 o 1
-1 8 15 66769.79 66881.91 773.84 o 1
1 8 15 66922.68 65128.67 735.98 o 1
3 8 15 39947.31 40722.94 336.89 o 1
5 8 15 55897.82 57497.70 411.47 o 1
7 8 15 12708.27 12386.10 272.42 o 1
-6 9 15 855.25 906.08 108.50 o 1
-4 9 15 65589.92 67783.45 459.23 o 1
-2 9 15 355.77 23.93 103.61 < 1
0 9 15 90465.45 95264.77 584.07 o 1
2 9 15 367.15 557.47 102.52 o 1
4 9 15 65443.87 67612.05 518.43 o 1
6 9 15 866.64 770.39 133.79 o 1
-5 10 15 839.34 660.00 129.17 o 1
-3 10 15 5403.26 5807.07 265.12 o 1
-1 10 15 2340.05 2574.58 140.58 o 1
1 10 15 2373.85 2542.44 134.60 o 1
3 10 15 5686.67 6044.37 187.60 o 1
5 10 15 934.44 877.51 138.41 o 1
-4 11 15 6805.77 6707.26 304.27 o 1
-2 11 15 13218.33 13633.93 281.66 o 1
0 11 15 9438.44 10189.25 241.99 o 1
2 11 15 13406.60 13624.07 277.28 o 1
4 11 15 6830.19 6794.79 216.99 o 1
0 0 16 462.05 551.45 82.12 o 1
0 2 16 520.72 467.15 37.52 o 1
2 2 16 3657.81 3551.00 69.58 o 1
1 3 16 3711.33 3982.43 53.27 o 1
0 4 16 682.93 743.70 82.12 o 1
2 4 16 57.64 131.07 83.76 < 1
4 4 16 858.76 866.33 147.65 o 1
1 5 16 2350.32 2418.33 105.49 o 1
3 5 16 7492.74 7815.15 150.00 o 1
0 6 16 1055.38 919.34 157.71 o 1
2 6 16 3051.23 2861.94 147.35 o 1
4 6 16 408.64 728.23 164.52 o 1
6 6 16 2600.87 2304.02 80.75 o 1
1 7 16 4820.91 4627.43 202.52 o 1
3 7 16 964.28 1080.61 202.85 o 1
5 7 16 6651.78 6976.19 105.47 o 1
0 8 16 1045.91 374.98 389.66 < 1
2 8 16 192.27 376.90 206.13 < 1
4 8 16 1054.40 1179.32 60.64 o 1
6 8 16 0.39 -118.02 65.27 < 1
8 8 16 933.29 845.14 125.90 o 1
1 9 16 2584.83 2847.24 98.15 o 1
3 9 16 4989.18 5348.04 123.69 o 1
5 9 16 402.40 463.65 71.52 o 1
7 9 16 4230.91 4186.26 121.53 o 1
0 10 16 1362.38 1406.35 121.00 o 1
2 10 16 2198.05 2317.95 117.46 o 1
4 10 16 800.86 772.54 91.37 o 1
6 10 16 1774.78 1738.86 148.46 o 1
1 11 16 2422.32 2484.60 112.29 o 1
3 11 16 865.56 790.76 112.85 o 1
0 1 17 8756.25 9228.01 126.27 o 1
1 2 17 9889.07 9951.22 69.24 o 1
0 3 17 757.58 759.18 60.91 o 1
2 3 17 1421.38 1475.83 58.18 o 1
1 4 17 5226.35 5128.68 83.71 o 1
3 4 17 486.16 510.68 92.18 o 1
0 5 17 11701.70 12090.45 204.26 o 1
2 5 17 13024.66 13286.85 178.43 o 1
4 5 17 7836.84 8040.75 175.56 o 1
1 6 17 4677.07 4508.00 146.24 o 1
3 6 17 895.76 1059.67 142.49 o 1
5 6 17 6791.63 6813.14 216.36 o 1
0 7 17 144.01 48.40 183.29 < 1
2 7 17 0.05 -14.96 203.96 < 1
4 7 17 84.07 -67.98 233.05 < 1
6 7 17 10.35 243.66 56.02 o 1
1 8 17 1703.52 2332.14 270.82 o 1
3 8 17 198.63 333.39 55.20 o 1
5 8 17 3014.37 2894.78 81.57 o 1
7 8 17 13.67 -52.21 72.88 < 1
0 9 17 6383.67 6117.85 175.60 o 1
2 9 17 7578.25 7900.00 140.79 o 1
4 9 17 4830.17 5051.85 119.34 o 1
6 9 17 4484.39 4539.88 119.62 o 1
1 10 17 1714.63 1962.65 98.43 o 1
3 10 17 472.01 339.10 89.47 o 1
5 10 17 2492.81 2406.28 135.13 o 1
0 11 17 213.79 -75.87 134.06 < 1
2 11 17 30.63 7.34 95.18 < 1
-1 1 18 51315.89 50792.85 309.82 o 1
1 1 18 51407.53 48581.25 231.34 o 1
0 2 18 92813.02 94202.30 257.35 o 1
-3 3 18 49564.57 50779.60 387.09 o 1
-1 3 18 49999.46 51181.86 202.20 o 1
1 3 18 49974.59 51049.73 245.25 o 1
3 3 18 48816.07 50251.33 570.87 o 1
-2 4 18 52425.87 54894.12 382.96 o 1
0 4 18 149.32 318.17 75.05 o 1
2 4 18 53033.44 53429.87 442.24 o 1
-5 5 18 7710.81 7749.85 322.20 o 1
-3 5 18 20765.35 21508.00 288.90 o 1
-1 5 18 18988.42 18688.32 282.95 o 1
1 5 18 19088.54 20076.02 269.86 o 1
3 5 18 20425.95 19982.97 334.31 o 1
5 5 18 7648.06 7149.21 414.10 o 1
-4 6 18 20804.44 20848.45 335.77 o 1
-2 6 18 312.58 719.55 188.18 o 1
0 6 18 30750.25 30129.32 326.87 o 1
2 6 18 312.54 498.46 222.44 o 1
4 6 18 21715.63 21399.71 379.81 o 1
-7 7 18 14642.79 15262.40 304.72 o 1
-5 7 18 11642.55 11276.71 154.14 o 1
-3 7 18 24247.76 23505.95 426.92 o 1
-1 7 18 22658.76 21972.63 455.53 o 1
1 7 18 22686.13 23019.12 424.25 o 1
3 7 18 23634.70 23493.82 481.67 o 1
5 7 18 11336.97 11440.56 186.25 o 1
7 7 18 13998.56 14614.74 396.17 o 1
-6 8 18 9510.77 9772.25 180.56 o 1
-4 8 18 332.42 381.26 71.52 o 1
-2 8 18 14196.01 13942.17 358.61 o 1
0 8 18 814.66 106.87 412.25 < 1
2 8 18 14640.97 14491.75 443.30 o 1
4 8 18 332.10 220.54 77.77 o 1
6 8 18 10295.06 10453.80 216.64 o 1
-7 9 18 3875.19 3674.04 163.96 o 1
-5 9 18 1901.53 1971.22 116.11 o 1
-3 9 18 5146.97 4831.70 177.55 o 1
-1 9 18 3988.03 3782.73 141.40 o 1
1 9 18 4018.42 4510.86 152.82 o 1
3 9 18 4975.60 4720.65 159.89 o 1
5 9 18 1855.80 2041.15 127.81 o 1
7 9 18 3676.96 3462.56 189.54 o 1
-4 10 18 6698.29 6943.88 234.40 o 1
-2 10 18 762.73 924.58 136.78 o 1
0 10 18 7435.42 8046.54 201.47 o 1
2 10 18 762.63 698.60 117.48 o 1
4 10 18 7195.86 6631.41 198.46 o 1
-3 11 18 8220.63 9166.33 331.15 o 1
-1 11 18 7371.42 7632.35 222.15 o 1
1 11 18 7378.73 7736.70 226.22 o 1
3 11 18 7940.90 8009.90 227.05 o 1
0 1 19 95.29 -73.97 100.89 < 1
1 2 19 212.11 183.83 36.44 o 1
0 3 19 2973.72 3057.38 75.30 o 1
2 3 19 2161.42 2167.36 64.98 o 1
1 4 19 8.77 53.30 66.08 < 1
3 4 19 2266.49 2343.32 108.21 o 1
0 5 19 3100.70 2910.25 134.84 o 1
2 5 19 3221.47 3313.66 127.77 o 1
4 5 19 1816.73 1786.11 138.40 o 1
1 6 19 290.74 2.45 130.80 < 1
3 6 19 586.94 479.95 154.18 o 1
5 6 19 2062.77 2145.84 202.29 o 1
0 7 19 4901.70 4742.20 229.70 o 1
2 7 19 4096.48 4049.79 246.30 o 1
4 7 19 3813.76 3595.43 253.11 o 1
6 7 19 1769.67 1999.63 78.85 o 1
1 8 19 36.92 327.42 240.12 < 1
3 8 19 1246.46 1219.27 67.16 o 1
5 8 19 399.44 387.50 54.93 o 1
7 8 19 1996.30 2018.10 93.81 o 1
0 9 19 2903.67 3113.37 137.03 o 1
2 9 19 2990.22 3210.13 103.04 o 1
4 9 19 1990.74 1925.08 96.53 o 1
6 9 19 1971.16 2063.50 102.51 o 1
1 10 19 308.90 414.70 79.40 o 1
3 10 19 25.65 48.95 87.56 < 1
5 10 19 1039.40 1202.98 120.19 o 1
0 11 19 2785.81 2821.42 169.93 o 1
2 11 19 2332.77 1949.25 110.66 o 1
0 0 20 8794.36 8223.89 339.49 o 1
0 2 20 11425.39 11080.80 107.25 o 1
2 2 20 13966.25 14477.96 168.59 o 1
1 3 20 3499.74 3632.13 67.96 o 1
0 4 20 6786.70 6687.94 118.21 o 1
2 4 20 8618.22 8576.49 138.02 o 1
4 4 20 5526.29 5345.33 216.63 o 1
1 5 20 2144.80 2131.85 120.99 o 1
3 5 20 7340.97 7478.98 165.78 o 1
0 6 20 4194.04 4127.14 181.05 o 1
2 6 20 5345.65 5163.72 198.43 o 1
4 6 20 3598.85 3554.92 186.77 o 1
6 6 20 2439.85 2285.56 104.68 o 1
1 7 20 5009.25 5030.84 228.61 o 1
3 7 20 990.14 958.79 222.16 o 1
5 7 20 7006.95 7032.34 99.21 o 1
0 8 20 4085.50 4367.99 399.09 o 1
2 8 20 4854.80 4889.39 270.76 o 1
4 8 20 3529.40 3712.47 86.73 o 1
6 8 20 2492.83 2763.58 93.81 o 1
8 8 20 2370.15 2309.26 141.12 o 1
1 9 20 2276.05 2294.27 87.82 o 1
3 9 20 4801.46 4928.96 120.70 o 1
5 9 20 308.36 285.80 78.59 o 1
0 10 20 849.92 750.24 109.86 o 1
2 10 20 1150.71 1015.35 89.73 o 1
4 10 20 833.08 1141.81 110.40 o 1
1 11 20 2517.18 2427.21 119.09 o 1
0 1 21 14126.42 14972.77 220.70 o 1
-1 2 21 139913.52 137143.75 425.09 o 1
1 2 21 139069.67 136589.39 419.96 o 1
-2 3 21 142815.38 144097.47 466.31 o 1
0 3 21 2689.19 2953.86 85.65 o 1
2 3 21 143168.92 139981.86 485.18 o 1
-3 4 21 1211.43 1310.16 141.40 o 1
-1 4 21 8235.09 8049.89 159.61 o 1
1 4 21 8637.05 8521.32 172.60 o 1
3 4 21 1198.01 1412.40 179.47 o 1
-4 5 21 10233.84 8940.42 207.75 o 1
-2 5 21 50248.59 51794.80 421.19 o 1
0 5 21 14275.62 14068.63 225.89 o 1
2 5 21 49978.41 49601.34 475.71 o 1
4 5 21 10855.15 10976.45 307.12 o 1
-5 6 21 23465.96 23263.55 374.78 o 1
-3 6 21 63987.38 63873.71 569.56 o 1
-1 6 21 57877.57 58571.93 621.04 o 1
1 6 21 56912.15 57585.23 549.12 o 1
3 6 21 64999.08 64369.93 601.81 o 1
5 6 21 23094.47 21689.51 430.82 o 1
-6 7 21 35826.89 36866.35 332.12 o 1
-4 7 21 314.10 310.55 245.29 < 1
-2 7 21 66600.05 65162.67 732.67 o 1
0 7 21 87.81 398.94 203.14 < 1
2 7 21 66897.27 66380.20 697.61 o 1
4 7 21 297.56 584.94 330.68 < 1
6 7 21 36352.03 36250.92 369.50 o 1
-7 8 21 624.83 447.34 107.42 o 1
-5 8 21 4918.04 5053.44 125.36 o 1
-3 8 21 376.93 624.09 94.09 o 1
-1 8 21 2835.11 3285.55 355.42 o 1
1 8 21 3130.61 2805.10 301.80 o 1
3 8 21 369.48 541.43 78.05 o 1
5 8 21 5449.52 5284.16 147.62 o 1
7 8 21 620.60 475.08 115.85 o 1
-6 9 21 5756.68 5865.52 186.25 o 1
-4 9 21 5299.35 5810.37 203.95 o 1
-2 9 21 10084.64 10469.82 241.16 o 1
0 9 21 6413.67 6811.95 181.36 o 1
2 9 21 10044.43 10427.58 219.14 o 1
4 9 21 5676.08 6053.35 182.43 o 1
6 9 21 5682.61 6075.10 219.43 o 1
-5 10 21 7055.97 6605.85 288.19 o 1
-3 10 21 18323.09 19026.84 415.67 o 1
-1 10 21 15635.97 15917.95 273.44 o 1
1 10 21 15175.52 15676.74 278.13 o 1
3 10 21 18844.96 18776.15 302.23 o 1
5 10 21 6857.86 6695.82 232.76 o 1
-2 11 21 19262.83 18938.71 325.94 o 1
0 11 21 369.45 711.12 146.58 o 1
2 11 21 19336.66 18608.69 321.31 o 1
1 1 22 622.98 819.02 132.15 o 1
0 2 22 59.12 147.12 69.34 o 1
1 3 22 605.21 581.10 58.46 o 1
3 3 22 4010.53 3792.62 137.82 o 1
0 4 22 7.94 24.20 118.84 < 1
2 4 22 78.62 -21.21 92.46 < 1
1 5 22 3058.00 3187.89 137.84 o 1
3 5 22 268.33 178.66 126.99 < 1
5 5 22 4826.50 4683.30 257.98 o 1
0 6 22 66.34 89.74 181.11 < 1
2 6 22 6.40 15.50 174.04 < 1
4 6 22 71.68 -41.61 184.92 < 1
1 7 22 1937.69 2085.75 209.91 o 1
3 7 22 4310.66 3912.57 258.81 o 1
5 7 22 150.52 173.77 47.59 o 1
7 7 22 3829.36 3822.31 135.39 o 1
0 8 22 35.36 -349.44 402.47 < 1
2 8 22 106.79 207.22 210.75 < 1
4 8 22 14.70 136.79 88.11 < 1
6 8 22 84.25 225.98 68.26 o 1
1 9 22 2635.33 2733.32 95.98 o 1
3 9 22 853.05 1043.65 84.84 o 1
5 9 22 3224.89 3227.54 123.98 o 1
0 10 22 68.98 -153.37 103.88 < 1
2 10 22 13.80 107.42 84.85 < 1
4 10 22 65.78 219.73 99.26 o 1
1 11 22 1412.95 1431.09 110.40 o 1
0 1 23 8952.33 8904.39 216.23 o 1
1 2 23 1251.96 1180.05 53.29 o 1
0 3 23 15561.58 15121.84 152.30 o 1
2 3 23 4757.34 4377.74 85.08 o 1
1 4 23 5112.64 4960.65 103.01 o 1
3 4 23 9456.76 9337.78 154.60 o 1
0 5 23 1707.26 1509.04 156.07 o 1
2 5 23 6.14 226.53 133.79 < 1
4 5 23 984.63 673.27 136.50 o 1
1 6 23 1437.50 1263.02 171.30 o 1
3 6 23 3597.07 3425.51 197.37 o 1
5 6 23 109.15 413.07 211.30 < 1
0 7 23 11071.00 12460.29 339.91 o 1
2 7 23 4496.92 4478.73 256.35 o 1
4 7 23 7498.07 7902.13 297.62 o 1
6 7 23 3447.42 3702.75 96.79 o 1
1 8 23 1118.78 1056.13 216.18 o 1
3 8 23 2506.50 2245.57 82.66 o 1
5 8 23 168.00 99.80 59.28 < 1
7 8 23 2492.50 2630.08 101.69 o 1
0 9 23 158.79 -31.82 93.55 < 1
2 9 23 191.93 194.98 70.43 o 1
4 9 23 81.62 250.73 79.68 o 1
6 9 23 5.61 -30.19 94.64 < 1
1 10 23 1484.83 1623.05 94.63 o 1
3 10 23 2453.47 2539.78 123.98 o 1
0 11 23 4755.11 4931.18 206.34 o 1
0 0 24 1085813.88 1101160.50 4115.41 o 1
-2 2 24 365230.75 367499.97 1396.32 o 1
0 2 24 36957.80 36160.70 294.89 o 1
2 2 24 364796.31 356979.75 1336.11 o 1
-1 3 24 482.42 607.24 93.55 o 1
1 3 24 505.20 289.34 82.40 o 1
-4 4 24 492537.62 497472.19 2016.80 o 1
-2 4 24 20792.07 21194.21 279.37 o 1
0 4 24 718986.25 735775.44 1570.20 o 1
2 4 24 20630.66 20401.39 293.50 o 1
4 4 24 489339.81 478692.56 2080.89 o 1
-3 5 24 1096.77 804.94 162.89 o 1
-1 5 24 311.21 812.55 170.50 o 1
1 5 24 299.32 310.28 216.74 < 1
3 5 24 1148.67 798.11 197.96 o 1
-6 6 24 76911.27 77492.27 607.63 o 1
-4 6 24 14457.66 14816.68 309.90 o 1
-2 6 24 160788.22 155456.56 894.70 o 1
0 6 24 22659.53 23052.88 338.37 o 1
2 6 24 161476.20 160273.81 918.85 o 1
4 6 24 14170.54 14116.99 380.61 o 1
6 6 24 78359.42 80874.67 697.37 o 1
-5 7 24 1121.21 1038.81 77.77 o 1
-3 7 24 155.22 -126.45 382.07 < 1
-1 7 24 774.77 741.31 271.67 o 1
1 7 24 810.47 574.87 302.12 < 1
3 7 24 149.75 58.20 389.42 < 1
5 7 24 1175.21 1212.27 92.46 o 1
-6 8 24 3914.73 3690.08 141.66 o 1
-4 8 24 174824.09 183284.83 995.43 o 1
-2 8 24 4117.11 4310.04 192.51 o 1
0 8 24 242538.23 252100.25 1186.52 o 1
2 8 24 4032.98 4164.70 126.17 o 1
4 8 24 174565.92 174875.73 760.22 o 1
6 8 24 3731.49 3475.83 155.00 o 1
-5 9 24 45.42 -54.39 152.29 < 1
-3 9 24 732.53 589.83 117.21 o 1
-1 9 24 338.49 271.94 93.82 o 1
1 9 24 332.32 256.17 106.33 o 1
3 9 24 759.47 553.93 96.26 o 1
5 9 24 46.61 42.97 131.35 < 1
-4 10 24 8147.61 8309.66 302.88 o 1
-2 10 24 37736.30 37592.68 417.68 o 1
0 10 24 11426.58 12231.34 249.86 o 1
2 10 24 38214.54 36626.17 403.72 o 1
4 10 24 7933.89 7296.67 215.09 o 1
0 1 25 1798.28 1737.35 150.62 o 1
1 2 25 92.90 16.32 70.70 < 1
0 3 25 0.77 -54.93 101.16 < 1
2 3 25 1926.95 1756.41 81.84 o 1
1 4 25 1673.09 1646.07 89.73 o 1
3 4 25 55.01 -46.23 129.17 < 1
0 5 25 3922.58 4237.03 231.34 o 1
2 5 25 511.14 526.73 137.05 o 1
4 5 25 3234.86 2977.56 163.67 o 1
1 6 25 329.85 626.26 168.05 o 1
3 6 25 1588.95 1431.87 172.12 o 1
5 6 25 42.83 -47.32 184.92 < 1
0 7 25 513.92 297.76 265.13 < 1
2 7 25 2510.14 2295.85 256.94 o 1
4 7 25 218.87 226.25 51.67 o 1
6 7 25 1843.65 1800.58 82.93 o 1
1 8 25 1329.27 1266.58 63.90 o 1
3 8 25 279.44 342.37 59.83 o 1
5 8 25 1989.88 1992.80 85.65 o 1
7 8 25 0.90 178.39 89.20 < 1
0 9 25 2992.88 2941.79 140.56 o 1
2 9 25 1024.14 1076.27 81.58 o 1
4 9 25 2495.28 2353.80 104.41 o 1
1 10 25 504.52 734.76 91.91 o 1
3 10 25 1078.54 845.95 102.24 o 1
1 1 26 12608.35 12844.42 289.78 o 1
0 2 26 682.43 497.07 129.71 o 1
1 3 26 6247.66 6188.32 87.51 o 1
3 3 26 2783.39 2536.03 159.05 o 1
0 4 26 6.69 54.12 168.60 < 1
2 4 26 354.47 420.68 129.98 o 1
1 5 26 10988.00 11109.17 183.66 o 1
3 5 26 6457.66 6313.72 181.56 o 1
5 5 26 9365.36 9458.52 329.64 o 1
0 6 26 195.02 189.00 190.63 < 1
2 6 26 12.72 -96.27 166.70 < 1
4 6 26 102.31 -146.30 187.37 < 1
1 7 26 1782.78 1240.43 224.86 o 1
3 7 26 801.24 685.80 293.14 o 1
5 7 26 2238.56 2343.51 71.24 o 1
7 7 26 270.27 348.62 117.20 o 1
0 8 26 45.30 -111.77 90.01 < 1
2 8 26 38.90 -48.95 54.39 < 1
4 8 26 20.18 -191.45 85.93 < 1
6 8 26 6.75 -84.03 71.25 < 1
1 9 26 5561.90 5501.14 121.24 o 1
3 9 26 3792.57 3991.34 119.08 o 1
5 9 26 4829.72 4528.04 148.43 o 1
0 10 26 6.03 -78.32 119.93 < 1
2 10 26 44.71 268.40 100.35 o 1
0 1 27 40967.35 41818.43 456.12 o 1
-1 2 27 153745.14 157735.88 952.27 o 1
1 2 27 153755.58 154235.66 957.25 o 1
-2 3 27 165595.19 163159.08 751.04 o 1
0 3 27 17544.67 16054.86 183.78 o 1
2 3 27 165241.64 157756.41 707.38 o 1
-3 4 27 10184.17 10085.16 247.99 o 1
-1 4 27 24933.96 24565.66 308.76 o 1
1 4 27 24942.58 25033.31 286.72 o 1
3 4 27 10378.01 9972.60 257.46 o 1
-4 5 27 25289.21 22067.62 285.15 o 1
-2 5 27 63876.61 62822.53 572.26 o 1
0 5 27 38135.83 37977.09 355.92 o 1
2 5 27 63924.78 63669.88 463.77 o 1
4 5 27 25582.51 25527.91 410.87 o 1
-5 6 27 29382.46 28919.97 235.66 o 1
-3 6 27 76458.41 75489.67 677.08 o 1
-1 6 27 66585.79 66789.88 532.49 o 1
1 6 27 66735.81 66417.52 549.74 o 1
3 6 27 76182.23 72790.76 567.60 o 1
5 6 27 29494.76 28347.91 407.65 o 1
-6 7 27 46837.15 47497.66 382.79 o 1
-4 7 27 1858.21 1903.85 96.27 o 1
-2 7 27 90703.14 89270.36 788.97 o 1
0 7 27 2799.68 1650.93 297.23 o 1
2 7 27 90502.75 91490.39 737.88 o 1
4 7 27 1916.88 2158.04 102.52 o 1
6 7 27 46544.02 45485.95 418.13 o 1
-5 8 27 7977.04 7659.15 184.08 o 1
-3 8 27 2229.01 2521.41 139.23 o 1
-1 8 27 6399.23 6325.61 146.56 o 1
1 8 27 6413.21 6655.32 159.61 o 1
3 8 27 2362.44 2408.38 111.21 o 1
5 8 27 8228.02 8119.74 186.50 o 1
-4 9 27 13152.07 13592.65 282.21 o 1
-2 9 27 15086.42 14558.36 238.71 o 1
0 9 27 18692.89 18982.68 297.39 o 1
2 9 27 15117.37 14151.80 250.12 o 1
4 9 27 13403.33 12368.69 243.03 o 1
-3 10 27 19490.76 18905.29 317.75 o 1
-1 10 27 15777.38 15003.82 315.89 o 1
1 10 27 15863.88 14896.69 312.62 o 1
3 10 27 19364.61 18415.33 389.27 o 1
0 0 28 1407.04 1781.23 357.28 o 1
0 2 28 325.46 689.89 207.48 o 1
2 2 28 4635.49 4258.15 197.89 o 1
1 3 28 1701.57 1561.24 76.40 o 1
0 4 28 1528.77 1260.82 188.43 o 1
2 4 28 45.36 3.54 133.25 < 1
4 4 28 1573.06 1757.88 205.83 o 1
1 5 28 1125.49 1353.05 128.34 o 1
3 5 28 3838.91 3789.75 147.08 o 1
0 6 28 782.03 398.64 198.50 o 1
2 6 28 3829.59 3989.06 200.91 o 1
4 6 28 324.13 557.19 164.25 o 1
6 6 28 3121.30 3166.37 121.80 o 1
1 7 28 2885.52 3250.09 242.79 o 1
3 7 28 633.57 564.52 54.66 o 1
5 7 28 4021.90 4108.23 87.81 o 1
0 8 28 1513.76 1532.22 100.06 o 1
2 8 28 131.50 200.42 56.56 o 1
4 8 28 1428.95 1405.53 78.58 o 1
6 8 28 0.02 -156.64 96.81 < 1
1 9 28 1445.05 1652.96 91.36 o 1
3 9 28 2876.03 2834.44 122.89 o 1
5 9 28 229.90 210.21 135.97 < 1
0 10 28 1106.11 1194.27 192.79 o 1
2 10 28 2506.48 2512.30 177.00 o 1
0 1 29 4309.42 4851.88 244.92 o 1
1 2 29 2115.71 2429.85 188.69 o 1
0 3 29 8832.26 8319.26 216.02 o 1
2 3 29 5394.80 5180.77 146.51 o 1
1 4 29 3213.70 3023.97 98.14 o 1
3 4 29 6450.52 6315.04 155.47 o 1
0 5 29 740.73 792.93 172.13 o 1
2 5 29 117.11 152.29 139.78 < 1
4 5 29 623.28 432.91 168.87 o 1
1 6 29 1178.11 1124.37 152.82 o 1
3 6 29 2931.02 2682.68 162.86 o 1
5 6 29 112.31 268.67 49.22 o 1
0 7 29 7432.33 7768.63 139.43 o 1
2 7 29 4784.95 4507.55 168.55 o 1
4 7 29 5648.96 5630.62 105.75 o 1
6 7 29 2883.54 2809.45 116.64 o 1
1 8 29 1565.08 1738.87 71.51 o 1
3 8 29 2932.06 3054.40 100.87 o 1
5 8 29 397.31 411.98 93.27 o 1
0 9 29 72.95 -77.23 122.10 < 1
2 9 29 10.80 12.78 83.49 < 1
4 9 29 72.20 123.19 135.15 < 1
1 10 29 485.33 330.94 157.18 o 1
-1 1 30 29050.08 29148.29 789.99 o 1
1 1 30 28893.45 29325.83 752.02 o 1
0 2 30 33132.75 33663.22 525.33 o 1
-3 3 30 7732.03 7287.21 212.62 o 1
-1 3 30 15917.50 15669.28 235.92 o 1
1 3 30 15782.91 15197.87 305.25 o 1
3 3 30 7808.09 7081.97 326.52 o 1
-2 4 30 20733.46 20015.46 299.05 o 1
0 4 30 56.39 -1.63 146.03 < 1
2 4 30 20981.48 19509.37 239.20 o 1
-5 5 30 21214.59 21759.32 258.99 o 1
-3 5 30 14479.92 14054.37 278.36 o 1
-1 5 30 24287.87 24375.50 339.12 o 1
1 5 30 23930.16 24553.85 300.32 o 1
3 5 30 14344.48 13561.94 253.90 o 1
5 5 30 20520.33 20003.93 600.78 o 1
-4 6 30 10499.89 11041.03 167.77 o 1
-2 6 30 155.91 325.78 262.96 < 1
0 6 30 14146.17 14249.04 237.07 o 1
2 6 30 155.85 203.68 64.99 o 1
4 6 30 10913.41 11266.29 378.14 o 1
-5 7 30 4784.61 4513.84 186.52 o 1
-3 7 30 1627.00 1812.98 107.96 o 1
-1 7 30 4114.14 3942.36 107.67 o 1
1 7 30 3999.67 4013.03 118.01 o 1
3 7 30 1646.56 2113.71 104.42 o 1
5 7 30 4595.42 4448.16 252.89 o 1
-4 8 30 140.20 205.86 208.58 < 1
-2 8 30 7203.64 7500.87 173.21 o 1
0 8 30 339.32 317.62 93.27 o 1
2 8 30 7411.10 6895.37 212.89 o 1
4 8 30 140.24 -100.62 134.07 < 1
-3 9 30 7484.76 7321.07 280.04 o 1
-1 9 30 11707.72 12460.69 451.25 o 1
1 9 30 11458.56 11700.05 345.83 o 1
3 9 30 7393.06 6969.66 440.75 o 1
0 10 30 4316.90 4621.70 507.93 o 1
0 1 31 68.34 -137.33 209.94 < 1
1 2 31 12.33 104.15 200.15 < 1
0 3 31 2619.71 2721.26 304.78 o 1
2 3 31 1499.75 1626.01 152.27 o 1
1 4 31 142.74 110.95 105.24 < 1
3 4 31 2280.46 2160.46 159.33 o 1
0 5 31 897.65 1016.44 131.61 o 1
2 5 31 1389.32 1261.13 138.40 o 1
4 5 31 462.10 637.41 168.87 o 1
1 6 31 77.12 96.54 117.75 < 1
3 6 31 491.00 453.31 51.94 o 1
5 6 31 1055.41 970.21 70.97 o 1
0 7 31 3893.22 3917.85 123.43 o 1
2 7 31 2834.42 2811.06 85.65 o 1
4 7 31 3267.56 3323.76 121.26 o 1
6 7 31 1297.96 2106.00 324.67 o 1
1 8 31 310.02 358.68 102.79 o 1
3 8 31 1588.81 1718.48 143.84 o 1
5 8 31 32.11 -13.33 154.46 < 1
0 9 31 1386.81 1505.58 305.63 o 1
2 9 31 1719.81 1752.17 189.79 o 1
4 9 31 898.63 490.82 288.24 < 1
0 0 32 9514.58 10118.16 261.94 o 1
0 2 32 7144.64 7448.46 357.11 o 1
2 2 32 5327.79 4903.88 378.37 o 1
1 3 32 1643.06 1579.49 205.83 o 1
0 4 32 6460.36 6288.11 243.26 o 1
2 4 32 4979.62 4572.04 193.55 o 1
4 4 32 4559.93 4204.97 294.68 o 1
1 5 32 1128.48 1003.38 139.77 o 1
3 5 32 3954.21 4223.12 221.84 o 1
0 6 32 4808.55 4637.96 118.80 o 1
2 6 32 3854.08 4038.56 223.75 o 1
4 6 32 3547.76 3599.08 110.65 o 1
6 6 32 2870.28 2409.21 322.73 o 1
1 7 32 2727.21 2776.50 107.12 o 1
3 7 32 532.91 484.31 84.30 o 1
5 7 32 4067.91 4805.56 265.34 o 1
0 8 32 2384.72 2559.02 224.85 o 1
2 8 32 1935.80 2018.61 146.83 o 1
4 8 32 1802.31 2069.77 171.03 o 1
1 9 32 1381.08 1419.38 207.74 o 1
3 9 32 2917.76 3368.41 346.11 o 1
0 1 33 54208.85 56575.22 524.89 o 1
-1 2 33 911.08 1099.18 336.39 o 1
1 2 33 903.08 776.39 343.73 o 1
-2 3 33 2625.30 2303.86 277.65 o 1
0 3 33 32934.25 30939.95 602.63 o 1
2 3 33 2712.59 2488.09 429.37 o 1
-3 4 33 23476.67 24623.97 300.04 o 1
-1 4 33 37706.36 38701.03 608.11 o 1
1 4 33 38304.88 36191.71 642.08 o 1
3 4 33 23106.68 21273.91 496.32 o 1
-4 5 33 29430.81 29736.82 337.86 o 1
-2 5 33 315.46 422.59 402.74 < 1
0 5 33 40035.92 41307.83 355.89 o 1
2 5 33 308.44 569.71 90.56 o 1
4 5 33 29880.44 26678.24 729.26 o 1
-5 6 33 145.57 402.47 171.59 o 1
-3 6 33 1871.08 2142.61 156.37 o 1
-1 6 33 375.68 301.58 386.42 < 1
1 6 33 356.84 270.58 95.99 o 1
3 6 33 2032.23 2449.13 172.67 o 1
5 6 33 134.81 -103.61 143.04 < 1
-4 7 33 7722.61 7148.55 276.24 o 1
-2 7 33 2225.34 2169.25 185.19 o 1
2 7 33 2324.96 2258.05 215.63 o 1
4 7 33 7609.99 7449.02 312.14 o 1
-5 8 33 12811.13 11188.08 524.21 o 1
-3 8 33 9791.11 9573.29 318.89 o 1
1 8 33 15637.33 14825.09 532.75 o 1
3 8 33 9479.46 8438.94 364.07 o 1
5 8 33 13197.68 12945.62 589.61 o 1
-2 9 33 395.49 197.97 242.29 < 1
2 9 33 372.57 612.95 237.40 o 1
1 1 34 1876.55 1270.04 380.11 o 1
0 2 34 27.01 -258.89 316.54 < 1
1 3 34 33.74 3.81 315.99 < 1
3 3 34 652.21 63.63 482.94 < 1
0 4 34 2.30 38.62 73.97 < 1
2 4 34 36.87 -118.29 289.89 < 1
1 5 34 4064.61 3387.40 284.64 o 1
3 5 34 1066.27 1070.01 75.32 o 1
5 5 34 5520.30 6078.67 187.57 o 1
0 6 34 61.94 -115.03 85.66 < 1
2 6 34 10.94 -117.21 348.35 < 1
4 6 34 65.15 13.60 91.64 < 1
1 7 34 330.65 332.58 97.08 o 1
3 7 34 1406.90 1319.33 120.19 o 1
5 7 34 22.97 428.58 194.98 o 1
0 8 34 13.58 -383.98 292.88 < 1
2 8 34 59.90 72.88 121.56 < 1
4 8 34 5.83 -93.82 151.47 < 1
1 9 34 3332.33 2550.68 235.17 o 1
0 1 35 1182.28 1396.28 269.74 o 1
1 2 35 7730.50 7715.44 323.14 o 1
0 3 35 22.93 -531.91 444.35 < 1
2 3 35 3108.36 3625.47 329.51 o 1
1 4 35 1234.08 1305.46 374.97 o 1
3 4 35 97.82 -60.10 279.82 < 1
0 5 35 2618.10 2552.23 134.86 o 1
2 5 35 8766.94 8507.84 351.13 o 1
4 5 35 2405.18 2473.72 99.51 o 1
1 6 35 3491.46 3280.16 508.40 o 1
3 6 35 1335.90 1551.82 110.67 o 1
5 6 35 4328.48 4036.90 268.60 o 1
2 7 35 629.81 621.90 109.32 o 1
4 7 35 32.40 214.29 111.50 < 1
1 8 35 1277.76 1520.84 276.00 o 1
3 8 35 364.00 418.51 147.39 o 1
0 0 36 162136.91 170528.39 1120.46 o 1
-2 2 36 344141.47 341177.22 3873.67 o 1
0 2 36 13786.51 13482.66 468.90 o 1
2 2 36 343253.72 326676.66 3990.90 o 1
-1 3 36 443.08 -53.30 443.53 < 1
1 3 36 464.34 889.23 419.60 o 1
-4 4 36 76840.94 82743.35 807.00 o 1
-2 4 36 11676.54 11417.14 591.54 o 1
0 4 36 111013.88 117381.60 698.20 o 1
2 4 36 11586.84 11787.60 240.32 o 1
4 4 36 77437.37 79907.07 869.51 o 1
-3 5 36 1121.90 1365.40 135.97 o 1
-1 5 36 330.93 -200.42 459.57 < 1
1 5 36 316.33 224.35 113.40 < 1
3 5 36 1176.55 1546.19 134.33 o 1
-4 6 36 4792.96 4892.84 211.54 o 1
-2 6 36 174816.23 181405.50 1077.50 o 1
0 6 36 5170.83 5134.31 213.17 o 1
2 6 36 174684.89 188177.95 1145.26 o 1
4 6 36 4664.47 4369.96 213.73 o 1
-5 7 36 1139.16 848.45 258.34 o 1
-3 7 36 139.98 -75.06 156.64 < 1
-1 7 36 732.93 395.67 220.54 < 1
1 7 36 759.99 208.57 169.96 < 1
3 7 36 137.90 399.21 190.63 o 1
5 7 36 1188.07 776.36 312.45 o 1
-2 8 36 7485.73 7762.52 416.54 o 1
0 8 36 37682.29 39518.29 1118.09 o 1
2 8 36 7386.28 7043.34 337.97 o 1
0 1 37 86.42 238.76 322.25 < 1
1 2 37 1185.62 1190.99 304.82 o 1
0 3 37 316.98 271.12 320.61 < 1
2 3 37 3241.34 3703.23 351.81 o 1
1 4 37 141.18 389.14 287.71 < 1
3 4 37 125.45 164.25 67.17 o 1
0 5 37 826.83 945.75 115.57 o 1
2 5 37 43.08 -70.70 85.93 < 1
4 5 37 761.52 776.62 81.03 o 1
1 6 37 1126.79 1387.60 112.30 o 1
3 6 37 2426.94 2406.28 127.25 o 1
5 6 37 144.79 412.80 203.68 o 1
2 7 37 3461.39 3719.83 211.79 o 1
4 7 37 659.56 265.67 141.13 < 1
3 8 37 0.31 -318.44 160.72 < 1
1 1 38 4212.77 5073.65 433.88 o 1
0 2 38 1028.66 1186.38 432.62 o 1
1 3 38 5443.28 5475.84 348.49 o 1
3 3 38 6517.50 6216.78 183.48 o 1
0 4 38 3.83 119.93 94.91 < 1
2 4 38 657.73 789.68 84.03 o 1
1 5 38 1945.66 1981.91 114.47 o 1
3 5 38 2679.91 2614.77 115.83 o 1
5 5 38 928.38 827.19 196.60 o 1
0 6 38 409.37 604.78 175.67 o 1
2 6 38 11.73 -65.81 101.43 < 1
4 6 38 260.24 209.12 129.71 < 1
1 7 38 4026.33 4364.81 219.12 o 1
3 7 38 4540.15 4890.76 200.63 o 1
0 8 38 32.05 -444.35 300.49 < 1
2 8 38 156.12 242.57 168.87 < 1
0 1 39 80655.98 85385.41 599.65 o 1
-1 2 39 13282.67 15400.11 264.30 o 1
1 2 39 13345.12 12707.67 248.51 o 1
-2 3 39 18357.73 19846.35 298.24 o 1
0 3 39 52036.45 55359.47 498.78 o 1
2 3 39 18369.04 19368.32 310.46 o 1
-3 4 39 35801.29 37237.69 404.67 o 1
-1 4 39 55893.83 60531.51 618.43 o 1
1 4 39 55651.16 58890.20 612.27 o 1
3 4 39 35948.09 37297.93 439.93 o 1
-4 5 39 46858.05 49517.27 474.61 o 1
-2 5 39 4861.40 4489.71 210.21 o 1
0 5 39 65647.31 70394.21 859.42 o 1
2 5 39 4901.79 4466.76 215.91 o 1
4 5 39 46571.86 47931.12 599.05 o 1
-5 6 39 2064.89 1547.06 347.27 o 1
-3 6 39 7953.42 7527.56 300.19 o 1
-1 6 39 5268.42 5612.12 234.68 o 1
1 6 39 5361.74 5294.23 241.73 o 1
3 6 39 7976.73 8214.17 339.06 o 1
5 6 39 2115.81 2018.01 364.12 o 1
-4 7 39 12773.91 13251.27 431.21 o 1
-2 7 39 13136.09 12977.77 543.22 o 1
2 7 39 13198.75 12484.17 552.18 o 1
4 7 39 12840.51 11924.85 418.69 o 1
0 2 40 733.05 470.16 95.45 o 1
2 2 40 554.96 460.92 101.70 o 1
1 3 40 686.96 755.96 87.29 o 1
0 4 40 5967.28 6246.95 195.99 o 1
2 4 40 928.12 1005.03 98.44 o 1
4 4 40 5283.59 5306.41 182.68 o 1
1 5 40 538.60 609.40 101.16 o 1
3 5 40 1797.75 1690.72 109.85 o 1
0 6 40 114.65 191.44 178.39 < 1
2 6 40 654.58 778.26 114.48 o 1
4 6 40 219.26 44.05 134.61 < 1
1 7 40 1325.62 1062.38 299.11 o 1
3 7 40 292.64 -493.83 221.36 < 1
0 1 41 1842.01 2093.39 150.36 o 1
1 2 41 3373.04 3549.88 116.63 o 1
0 3 41 505.92 410.34 106.05 o 1
2 3 41 1426.23 1504.23 90.00 o 1
1 4 41 1474.93 1564.86 113.39 o 1
3 4 41 444.56 383.97 80.76 o 1
0 5 41 2557.23 2756.17 224.04 o 1
2 5 41 4011.47 4056.53 150.34 o 1
4 5 41 2044.02 2033.02 138.67 o 1
1 6 41 2083.00 2102.35 134.05 o 1
3 6 41 944.57 1169.54 133.79 o 1
2 7 41 371.34 754.34 222.99 o 1
-1 1 42 6857.82 6866.90 281.95 o 1
1 1 42 6905.13 7005.35 289.83 o 1
0 2 42 13161.35 13722.77 383.40 o 1
-3 3 42 14695.68 15135.36 396.04 o 1
-1 3 42 10583.67 11233.67 295.24 o 1
1 3 42 10616.04 11506.42 298.50 o 1
3 3 42 14381.25 15769.63 428.44 o 1
-2 4 42 9427.98 10382.40 297.21 o 1
0 4 42 20.80 -15.50 172.41 < 1
2 4 42 9504.20 9603.19 290.40 o 1
-5 5 42 300.85 1135.89 346.45 o 1
-3 5 42 3926.81 4240.91 224.59 o 1
-1 5 42 1914.80 2099.84 179.20 o 1
1 5 42 1969.20 2111.47 187.08 o 1
3 5 42 3825.39 3838.94 222.70 o 1
5 5 42 314.40 1272.39 323.60 o 1
-4 6 42 5137.44 4820.33 418.24 o 1
-2 6 42 45.31 -236.59 171.32 < 1
0 6 42 6639.49 6082.68 332.29 o 1
2 6 42 45.32 84.30 199.06 < 1
4 6 42 5278.23 5830.94 350.23 o 1
0 1 43 462.46 281.45 141.13 < 1
1 2 43 1400.66 1478.40 108.22 o 1
0 3 43 73.93 314.91 127.00 o 1
2 3 43 52.37 174.04 87.56 < 1
1 4 43 239.81 77.50 99.26 < 1
3 4 43 106.64 91.10 91.64 < 1
0 5 43 1840.20 1794.58 231.94 o 1
2 5 43 3014.35 2807.76 140.29 o 1
4 5 43 1217.21 1000.12 129.71 o 1
1 6 43 1313.14 993.85 152.27 o 1
3 6 43 169.28 -108.23 154.19 < 1
0 2 44 3379.46 3492.82 225.93 o 1
2 2 44 3038.88 3195.73 163.95 o 1
1 3 44 674.23 687.43 100.61 o 1
0 4 44 3168.85 3453.44 240.07 o 1
2 4 44 2842.24 2775.71 141.93 o 1
4 4 44 2697.79 2525.33 171.29 o 1
1 5 44 477.69 224.89 119.65 < 1
3 5 44 1717.44 1683.39 142.21 o 1
2 6 44 1787.73 1754.35 183.81 o 1
0 1 45 1064.21 1122.29 157.45 o 1
-1 2 45 11683.07 11916.40 306.93 o 1
1 2 45 11557.16 12110.10 312.93 o 1
-2 3 45 12695.29 13525.29 337.94 o 1
0 3 45 999.56 956.94 199.60 o 1
2 3 45 12833.53 12760.00 329.76 o 1
-3 4 45 628.07 475.07 166.70 o 1
-1 4 45 849.24 1013.50 157.99 o 1
1 4 45 805.14 1106.80 162.62 o 1
3 4 45 644.29 724.98 157.99 o 1
-2 5 45 5760.48 5697.42 260.75 o 1
0 5 45 828.25 1408.10 251.54 o 1
2 5 45 5699.99 5793.02 278.43 o 1
1 1 46 328.20 183.01 144.40 < 1
0 2 46 25.23 95.45 176.49 < 1
1 3 46 1722.20 1609.43 125.62 o 1
3 3 46 3786.94 4037.57 194.12 o 1
0 4 46 3.08 289.34 260.52 < 1
2 4 46 42.62 -111.77 111.50 < 1
1 5 46 24.82 -129.72 180.02 < 1
1 2 47 126.26 336.12 104.97 o 1
0 3 47 5061.71 5450.27 282.99 o 1
2 3 47 858.74 904.42 124.54 o 1
1 4 47 2154.27 1924.51 179.73 o 1
3 4 47 3647.47 3286.68 161.22 o 1
0 5 47 945.23 1190.75 224.34 o 1
-2 2 48 39201.27 38169.64 1014.02 o 1
0 2 48 5911.66 6870.77 339.87 o 1
2 2 48 39293.77 39452.61 962.40 o 1
-1 3 48 270.46 495.47 191.99 o 1
1 3 48 283.13 171.86 199.06 < 1
-2 4 48 3898.20 3923.62 249.07 o 1
0 4 48 93382.64 100041.20 1114.31 o 1
2 4 48 3861.00 3819.27 247.98 o 1
1 2 49 93.38 -107.69 176.22 < 1
0 3 49 512.49 1000.43 252.08 o 1
2 3 49 60.41 -171.32 127.54 < 1
1 4 49 1667.92 1549.07 183.54 o 1
0 2 50 994.85 968.04 282.80 o 1
1 3 50 1740.71 1916.41 190.61 o 1
-1 2 51 23284.33 24268.78 866.53 o 1
1 2 51 23366.07 23481.71 771.14 o 1
#BEGIN Loops that were not found in dictionaries:
loop_
_jana_cell_twin_matrix_id
_jana_cell_twin_volume_fraction
_jana_cell_twin_matrix_1_1
_jana_cell_twin_matrix_1_2
_jana_cell_twin_matrix_1_3
_jana_cell_twin_matrix_2_1
_jana_cell_twin_matrix_2_2
_jana_cell_twin_matrix_2_3
_jana_cell_twin_matrix_3_1
_jana_cell_twin_matrix_3_2
_jana_cell_twin_matrix_3_3
1 0.317(6) 1 0 0 0 1 0 0 0 1
2 0.322(4) 0.5 -0.5 3 0.5 -0.5 -3 0.1667 0.1667 0
3 0.361(4) 0.5 0.5 3 -0.5 -0.5 3 0.1667 -0.1667 0
#END Loops that were not found in dictionaries
