#------------------------------------------------------------------------------
#$Date: 2016-02-13 21:28:24 +0200 (Sat, 13 Feb 2016) $
#$Revision: 176429 $
#$URL: svn://www.crystallography.net/cod/cif/1/52/30/1523068.cif $
#------------------------------------------------------------------------------
#
# This file is available in the Crystallography Open Database (COD),
# http://www.crystallography.net/
#
# All data on this site have been placed in the public domain by the
# contributors.
#
data_1523068
loop_
_publ_author_name
'Waterstrat, R.M.'
_publ_section_title
;
 The vanadium platinum constitution diagram
;
_journal_name_full               'Metallurgical Transactions'
_journal_page_first              455
_journal_page_last               466
_journal_volume                  4
_journal_year                    1973
_chemical_formula_sum            'Pt3 V'
_chemical_name_systematic        'Pt3 V'
_space_group_IT_number           139
_symmetry_space_group_name_Hall  '-I 4 2'
_symmetry_space_group_name_H-M   'I 4/m m m'
_cell_angle_alpha                90
_cell_angle_beta                 90
_cell_angle_gamma                90
_cell_formula_units_Z            2
_cell_length_a                   3.839
_cell_length_b                   3.839
_cell_length_c                   7.796
_cell_volume                     114.897
_citation_journal_id_ASTM        MTGTBF
_cod_data_source_file            Waterstrat_MTGTBF_1973_1873.cif
_cod_data_source_block           Pt3V1
_cod_original_cell_volume        114.8968
_cod_original_formula_sum        'Pt3 V1'
_cod_database_code               1523068
loop_
_symmetry_equiv_pos_as_xyz
x,y,z
-y,x,z
-x,-y,z
y,-x,z
x,-y,-z
y,x,-z
-x,y,-z
-y,-x,-z
-x,-y,-z
y,-x,-z
x,y,-z
-y,x,-z
-x,y,z
-y,-x,z
x,-y,z
y,x,z
x+1/2,y+1/2,z+1/2
-y+1/2,x+1/2,z+1/2
-x+1/2,-y+1/2,z+1/2
y+1/2,-x+1/2,z+1/2
x+1/2,-y+1/2,-z+1/2
y+1/2,x+1/2,-z+1/2
-x+1/2,y+1/2,-z+1/2
-y+1/2,-x+1/2,-z+1/2
-x+1/2,-y+1/2,-z+1/2
y+1/2,-x+1/2,-z+1/2
x+1/2,y+1/2,-z+1/2
-y+1/2,x+1/2,-z+1/2
-x+1/2,y+1/2,z+1/2
-y+1/2,-x+1/2,z+1/2
x+1/2,-y+1/2,z+1/2
y+1/2,x+1/2,z+1/2
loop_
_atom_site_label
_atom_site_type_symbol
_atom_site_fract_x
_atom_site_fract_y
_atom_site_fract_z
_atom_site_occupancy
_atom_site_U_iso_or_equiv
Pt2 Pt 0 0.5 0.25 1 0.0
Pt1 Pt 0 0 0.5 1 0.0
V1 V 0 0 0 1 0.0
