#------------------------------------------------------------------------------
#$Date: 2016-02-13 21:28:24 +0200 (Sat, 13 Feb 2016) $
#$Revision: 176429 $
#$URL: svn://www.crystallography.net/cod/cif/1/52/36/1523674.cif $
#------------------------------------------------------------------------------
#
# This file is available in the Crystallography Open Database (COD),
# http://www.crystallography.net/
#
# All data on this site have been placed in the public domain by the
# contributors.
#
data_1523674
loop_
_publ_author_name
'Giessen, B.C.'
'Grant, N.J.'
_publ_section_title
;
 The crystal structures of V Ni2, V Pd2, V Pt2, and related A B2 phases
;
_journal_name_full               'Journal of the Less-Common Metals'
_journal_page_first              114
_journal_page_last               119
_journal_volume                  8
_journal_year                    1965
_chemical_formula_sum            'Ni2 V'
_chemical_name_systematic        'Ni2 V'
_space_group_IT_number           71
_symmetry_space_group_name_Hall  '-I 2 2'
_symmetry_space_group_name_H-M   'I m m m'
_cell_angle_alpha                90
_cell_angle_beta                 90
_cell_angle_gamma                90
_cell_formula_units_Z            2
_cell_length_a                   2.559
_cell_length_b                   7.641
_cell_length_c                   3.549
_cell_volume                     69.395
_citation_journal_id_ASTM        JCOMAH
_cod_data_source_file            Giessen_JCOMAH_1965_1562.cif
_cod_data_source_block           Ni2V1
_cod_original_cell_volume        69.39473
_cod_original_formula_sum        'Ni2 V1'
_cod_database_code               1523674
loop_
_symmetry_equiv_pos_as_xyz
x,y,z
-x,-y,z
x,-y,-z
-x,y,-z
-x,-y,-z
x,y,-z
-x,y,z
x,-y,z
x+1/2,y+1/2,z+1/2
-x+1/2,-y+1/2,z+1/2
x+1/2,-y+1/2,-z+1/2
-x+1/2,y+1/2,-z+1/2
-x+1/2,-y+1/2,-z+1/2
x+1/2,y+1/2,-z+1/2
-x+1/2,y+1/2,z+1/2
x+1/2,-y+1/2,z+1/2
loop_
_atom_site_label
_atom_site_type_symbol
_atom_site_fract_x
_atom_site_fract_y
_atom_site_fract_z
_atom_site_occupancy
_atom_site_U_iso_or_equiv
V1 V 0 0 0 1 0.0
Ni1 Ni 0 0.334 0 1 0.0
