#------------------------------------------------------------------------------
#$Date: 2015-07-10 23:40:23 +0300 (Fri, 10 Jul 2015) $
#$Revision: 143376 $
#$URL: svn://www.crystallography.net/cod/cif/1/52/30/1523040.cif $
#------------------------------------------------------------------------------
#
# This file is available in the Crystallography Open Database (COD),
# http://www.crystallography.net/
#
# All data on this site have been placed in the public domain by the
# contributors.
#
data_1523040
loop_
_publ_author_name
'Vielhaber, E.'
'Luo, H.L.'
_publ_section_title
;
 New A15 phases
;
_journal_name_full               'Solid State Communications'
_journal_page_first              221
_journal_page_last               223
_journal_volume                  5
_journal_year                    1967
_chemical_formula_sum            'Tl0.8 Zr3.2'
_chemical_name_systematic        'Tl0.8 Zr3.2'
_space_group_IT_number           223
_symmetry_space_group_name_Hall  '-P 4n 2 3'
_symmetry_space_group_name_H-M   'P m -3 n'
_cell_angle_alpha                90
_cell_angle_beta                 90
_cell_angle_gamma                90
_cell_formula_units_Z            2
_cell_length_a                   5.626
_cell_length_b                   5.626
_cell_length_c                   5.626
_cell_volume                     178.073
_citation_journal_id_ASTM        SSCOA4
_cod_data_source_file            Vielhaber_SSCOA4_1967_535.cif
_cod_data_source_block           Tl0.8Zr3.2
_cod_original_cell_volume        178.0734
_cod_database_code               1523040
loop_
_symmetry_equiv_pos_as_xyz
x,y,z
-y+1/2,x+1/2,z+1/2
-x,-y,z
y+1/2,-x+1/2,z+1/2
x,-y,-z
y+1/2,x+1/2,-z+1/2
-x,y,-z
-y+1/2,-x+1/2,-z+1/2
z,x,y
-x+1/2,z+1/2,y+1/2
-z,-x,y
x+1/2,-z+1/2,y+1/2
z,-x,-y
x+1/2,z+1/2,-y+1/2
-z,x,-y
-x+1/2,-z+1/2,-y+1/2
y,z,x
y,-z,-x
z+1/2,y+1/2,-x+1/2
-y,z,-x
-z+1/2,-y+1/2,-x+1/2
-y,-z,x
z+1/2,-y+1/2,x+1/2
-z+1/2,y+1/2,x+1/2
-x,-y,-z
y-1/2,-x-1/2,-z-1/2
x,y,-z
-y-1/2,x-1/2,-z-1/2
-x,y,z
-y-1/2,-x-1/2,z-1/2
x,-y,z
y-1/2,x-1/2,z-1/2
-z,-x,-y
x-1/2,-z-1/2,-y-1/2
z,x,-y
-x-1/2,z-1/2,-y-1/2
-z,x,y
-x-1/2,-z-1/2,y-1/2
z,-x,y
x-1/2,z-1/2,y-1/2
-y,-z,-x
-y,z,x
-z-1/2,-y-1/2,x-1/2
y,-z,x
z-1/2,y-1/2,x-1/2
y,z,-x
-z-1/2,y-1/2,-x-1/2
z-1/2,-y-1/2,-x-1/2
loop_
_atom_site_label
_atom_site_type_symbol
_atom_site_fract_x
_atom_site_fract_y
_atom_site_fract_z
_atom_site_occupancy
_atom_site_U_iso_or_equiv
Zr1 Zr 0 0 0 0.2 0.0
Zr2 Zr 0.25 0 0.5 1 0.0
Tl1 Tl 0 0 0 0.8 0.0
