#------------------------------------------------------------------------------
#$Date: 2015-07-11 03:38:19 +0300 (Sat, 11 Jul 2015) $
#$Revision: 144137 $
#$URL: svn://www.crystallography.net/cod/cif/1/52/35/1523520.cif $
#------------------------------------------------------------------------------
#
# This file is available in the Crystallography Open Database (COD),
# http://www.crystallography.net/
#
# All data on this site have been placed in the public domain by the
# contributors.
#
data_1523520
loop_
_publ_author_name
'Edstroem, V.A.'
'Westman, S.'
_publ_section_title
;
 X-ray determination of the structure of the cubic gamma Pd, Zn phase
;
_journal_name_full
'Acta Chemica Scandinavica (1-27,1973-42,1988)'
_journal_page_first              279
_journal_page_last               285
_journal_volume                  23
_journal_year                    1969
_chemical_formula_sum            'Pd3 Zn10'
_chemical_name_systematic        'Pd3 Zn10'
_space_group_IT_number           217
_symmetry_space_group_name_Hall  'I -4 2 3'
_symmetry_space_group_name_H-M   'I -4 3 m'
_cell_angle_alpha                90
_cell_angle_beta                 90
_cell_angle_gamma                90
_cell_formula_units_Z            4
_cell_length_a                   9.1022
_cell_length_b                   9.1022
_cell_length_c                   9.1022
_cell_volume                     754.118
_citation_journal_id_ASTM        ACSAA4
_cod_data_source_file            Edstroem_ACSAA4_1969_1810.cif
_cod_data_source_block           Pd3Zn10
_cod_original_cell_volume        754.1176
_cod_database_code               1523520
loop_
_symmetry_equiv_pos_as_xyz
x,y,z
y,-x,-z
-x,-y,z
-y,x,-z
x,-y,-z
-y,-x,z
-x,y,-z
y,x,z
z,x,y
x,-z,-y
-z,-x,y
-x,z,-y
z,-x,-y
-x,-z,y
-z,x,-y
x,z,y
y,z,x
y,-z,-x
-z,-y,x
-y,z,-x
z,y,x
-y,-z,x
-z,y,-x
z,-y,-x
x+1/2,y+1/2,z+1/2
y+1/2,-x+1/2,-z+1/2
-x+1/2,-y+1/2,z+1/2
-y+1/2,x+1/2,-z+1/2
x+1/2,-y+1/2,-z+1/2
-y+1/2,-x+1/2,z+1/2
-x+1/2,y+1/2,-z+1/2
y+1/2,x+1/2,z+1/2
z+1/2,x+1/2,y+1/2
x+1/2,-z+1/2,-y+1/2
-z+1/2,-x+1/2,y+1/2
-x+1/2,z+1/2,-y+1/2
z+1/2,-x+1/2,-y+1/2
-x+1/2,-z+1/2,y+1/2
-z+1/2,x+1/2,-y+1/2
x+1/2,z+1/2,y+1/2
y+1/2,z+1/2,x+1/2
y+1/2,-z+1/2,-x+1/2
-z+1/2,-y+1/2,x+1/2
-y+1/2,z+1/2,-x+1/2
z+1/2,y+1/2,x+1/2
-y+1/2,-z+1/2,x+1/2
-z+1/2,y+1/2,-x+1/2
z+1/2,-y+1/2,-x+1/2
loop_
_atom_site_label
_atom_site_type_symbol
_atom_site_fract_x
_atom_site_fract_y
_atom_site_fract_z
_atom_site_occupancy
_atom_site_U_iso_or_equiv
Zn1 Zn 0.3572 0 0 0.667 0.0
Pd2 Pd 0.3572 0 0 0.333 0.0
Zn3 Zn 0.3103 0.3103 0.0385 1 0.0
Zn2 Zn 0.1075 0.1075 0.1075 1 0.0
Pd1 Pd 0.8269 0.8269 0.8269 1 0.0
