#------------------------------------------------------------------------------
#$Date: 2015-07-11 02:49:30 +0300 (Sat, 11 Jul 2015) $
#$Revision: 143814 $
#$URL: svn://www.crystallography.net/cod/cif/1/52/32/1523200.cif $
#------------------------------------------------------------------------------
#
# This file is available in the Crystallography Open Database (COD),
# http://www.crystallography.net/
#
# All data on this site have been placed in the public domain by the
# contributors.
#
data_1523200
loop_
_publ_author_name
'Badaeva, T.A.'
'Kuznetsova, P.I.'
_publ_section_title
;
 Structure of alloys of thorium with gadolinium, dysprosium, and scandium
;
_journal_name_full
'Fiz.-Khim. Splavov Tugoplavkikh Soedin. Toriem Uranom'
_journal_page_first              5
_journal_page_last               9
_journal_volume                  1968
_journal_year                    1968
_chemical_formula_sum            'Gd0.89 Th0.11'
_chemical_name_systematic        '(Gd0.89 Th0.11)'
_space_group_IT_number           194
_symmetry_space_group_name_Hall  '-P 6c 2c'
_symmetry_space_group_name_H-M   'P 63/m m c'
_cell_angle_alpha                90
_cell_angle_beta                 90
_cell_angle_gamma                120
_cell_formula_units_Z            2
_cell_length_a                   3.628
_cell_length_b                   3.628
_cell_length_c                   5.775
_cell_volume                     65.829
_citation_journal_id_ASTM        20ZPAY
_cod_data_source_file            Badaeva_20ZPAY_1968_493.cif
_cod_data_source_block           Gd0.89Th0.11
_cod_original_cell_volume        65.82899
_cod_database_code               1523200
loop_
_symmetry_equiv_pos_as_xyz
x,y,z
x-y,x,z+1/2
-y,x-y,z
-x,-y,z+1/2
-x+y,-x,z
y,-x+y,z+1/2
-y,-x,-z+1/2
x-y,-y,-z
x,x-y,-z+1/2
y,x,-z
-x+y,y,-z+1/2
-x,-x+y,-z
-x,-y,-z
-x+y,-x,-z-1/2
y,-x+y,-z
x,y,-z-1/2
x-y,x,-z
-y,x-y,-z-1/2
y,x,z-1/2
-x+y,y,z
-x,-x+y,z-1/2
-y,-x,z
x-y,-y,z-1/2
x,x-y,z
loop_
_atom_site_label
_atom_site_type_symbol
_atom_site_fract_x
_atom_site_fract_y
_atom_site_fract_z
_atom_site_occupancy
_atom_site_U_iso_or_equiv
Th1 Th 0.3333 0.6667 0.25 0.11 0.0
Gd1 Gd 0.3333 0.6667 0.25 0.89 0.0
