#------------------------------------------------------------------------------
#$Date: 2016-02-13 21:28:24 +0200 (Sat, 13 Feb 2016) $
#$Revision: 176429 $
#$URL: svn://www.crystallography.net/cod/cif/1/52/31/1523180.cif $
#------------------------------------------------------------------------------
#
# This file is available in the Crystallography Open Database (COD),
# http://www.crystallography.net/
#
# All data on this site have been placed in the public domain by the
# contributors.
#
data_1523180
loop_
_publ_author_name
'Aldred, A.T.'
_publ_section_title
;
 Intermediate phases involving scandium
;
_journal_name_full
'Transactions of the Metallurgical Society of Aime'
_journal_page_first              1082
_journal_page_last               1082
_journal_volume                  224
_journal_year                    1962
_chemical_formula_sum            'Ru Sc'
_chemical_name_systematic        'Ru Sc'
_space_group_IT_number           221
_symmetry_space_group_name_Hall  '-P 4 2 3'
_symmetry_space_group_name_H-M   'P m -3 m'
_cell_angle_alpha                90
_cell_angle_beta                 90
_cell_angle_gamma                90
_cell_formula_units_Z            1
_cell_length_a                   3.203
_cell_length_b                   3.203
_cell_length_c                   3.203
_cell_volume                     32.860
_citation_journal_id_ASTM        TMSAAB
_cod_data_source_file            Aldred_TMSAAB_1962_1991.cif
_cod_data_source_block           Ru1Sc1
_cod_original_cell_volume        32.86025
_cod_original_formula_sum        'Ru1 Sc1'
_cod_database_code               1523180
loop_
_symmetry_equiv_pos_as_xyz
x,y,z
-y,x,z
-x,-y,z
y,-x,z
x,-y,-z
y,x,-z
-x,y,-z
-y,-x,-z
z,x,y
-x,z,y
-z,-x,y
x,-z,y
z,-x,-y
x,z,-y
-z,x,-y
-x,-z,-y
y,z,x
y,-z,-x
z,y,-x
-y,z,-x
-z,-y,-x
-y,-z,x
z,-y,x
-z,y,x
-x,-y,-z
y,-x,-z
x,y,-z
-y,x,-z
-x,y,z
-y,-x,z
x,-y,z
y,x,z
-z,-x,-y
x,-z,-y
z,x,-y
-x,z,-y
-z,x,y
-x,-z,y
z,-x,y
x,z,y
-y,-z,-x
-y,z,x
-z,-y,x
y,-z,x
z,y,x
y,z,-x
-z,y,-x
z,-y,-x
loop_
_atom_site_label
_atom_site_type_symbol
_atom_site_fract_x
_atom_site_fract_y
_atom_site_fract_z
_atom_site_occupancy
_atom_site_U_iso_or_equiv
Sc1 Sc 0.5 0.5 0.5 1 0.0
Ru1 Ru 0 0 0 1 0.0
