#------------------------------------------------------------------------------
#$Date: 2015-07-11 04:09:59 +0300 (Sat, 11 Jul 2015) $
#$Revision: 144249 $
#$URL: svn://www.crystallography.net/cod/cif/1/52/36/1523628.cif $
#------------------------------------------------------------------------------
#
# This file is available in the Crystallography Open Database (COD),
# http://www.crystallography.net/
#
# All data on this site have been placed in the public domain by the
# contributors.
#
data_1523628
loop_
_publ_author_name
'Flueckiger, R.'
'Yvon, K.'
'Paoli, A.'
'Susz, C.'
'Roggen, R.'
'Muller, J.'
_publ_section_title
;
 Les domains d'homogeneite des phases supraconductrices dans le systeme
 molybdene-platine
;
_journal_name_full               'Journal of the Less-Common Metals'
_journal_page_first              207
_journal_page_last               225
_journal_volume                  32
_journal_year                    1973
_chemical_formula_sum            'Mo0.8 Pt0.2'
_chemical_name_systematic        '(Mo0.8 Pt0.2)'
_space_group_IT_number           223
_symmetry_space_group_name_Hall  '-P 4n 2 3'
_symmetry_space_group_name_H-M   'P m -3 n'
_cell_angle_alpha                90
_cell_angle_beta                 90
_cell_angle_gamma                90
_cell_formula_units_Z            8
_cell_length_a                   4.989
_cell_length_b                   4.989
_cell_length_c                   4.989
_cell_volume                     124.177
_citation_journal_id_ASTM        JCOMAH
_cod_data_source_file            Flueckiger_JCOMAH_1973_1261.cif
_cod_data_source_block           Mo0.8Pt0.2
_cod_original_cell_volume        124.1768
_cod_database_code               1523628
loop_
_symmetry_equiv_pos_as_xyz
x,y,z
-y+1/2,x+1/2,z+1/2
-x,-y,z
y+1/2,-x+1/2,z+1/2
x,-y,-z
y+1/2,x+1/2,-z+1/2
-x,y,-z
-y+1/2,-x+1/2,-z+1/2
z,x,y
-x+1/2,z+1/2,y+1/2
-z,-x,y
x+1/2,-z+1/2,y+1/2
z,-x,-y
x+1/2,z+1/2,-y+1/2
-z,x,-y
-x+1/2,-z+1/2,-y+1/2
y,z,x
y,-z,-x
z+1/2,y+1/2,-x+1/2
-y,z,-x
-z+1/2,-y+1/2,-x+1/2
-y,-z,x
z+1/2,-y+1/2,x+1/2
-z+1/2,y+1/2,x+1/2
-x,-y,-z
y-1/2,-x-1/2,-z-1/2
x,y,-z
-y-1/2,x-1/2,-z-1/2
-x,y,z
-y-1/2,-x-1/2,z-1/2
x,-y,z
y-1/2,x-1/2,z-1/2
-z,-x,-y
x-1/2,-z-1/2,-y-1/2
z,x,-y
-x-1/2,z-1/2,-y-1/2
-z,x,y
-x-1/2,-z-1/2,y-1/2
z,-x,y
x-1/2,z-1/2,y-1/2
-y,-z,-x
-y,z,x
-z-1/2,-y-1/2,x-1/2
y,-z,x
z-1/2,y-1/2,x-1/2
y,z,-x
-z-1/2,y-1/2,-x-1/2
z-1/2,-y-1/2,-x-1/2
loop_
_atom_site_label
_atom_site_type_symbol
_atom_site_fract_x
_atom_site_fract_y
_atom_site_fract_z
_atom_site_occupancy
_atom_site_U_iso_or_equiv
Mo2 Mo 0.25 0 0.5 0.996 0.0
Pt1 Pt 0 0 0 0.788 0.0
Mo1 Mo 0 0 0 0.212 0.0
Pt2 Pt 0.25 0 0.5 0.004 0.0
