#------------------------------------------------------------------------------
#$Date: 2016-02-13 21:28:24 +0200 (Sat, 13 Feb 2016) $
#$Revision: 176429 $
#$URL: svn://www.crystallography.net/cod/cif/1/52/36/1523656.cif $
#------------------------------------------------------------------------------
#
# This file is available in the Crystallography Open Database (COD),
# http://www.crystallography.net/
#
# All data on this site have been placed in the public domain by the
# contributors.
#
data_1523656
loop_
_publ_author_name
'Gardner, W.E.'
'Smith, T.F.'
'Penfold, J.'
'Harris, I.R.'
_publ_section_title
;
 The magnetic properties of rare earth-Pd3 phases
;
_journal_name_full               'Journal of Physics F'
_journal_page_first              133
_journal_page_last               150
_journal_volume                  2
_journal_year                    1972
_chemical_formula_sum            'Pd3 Yb'
_chemical_name_systematic        'Pd3 Yb'
_space_group_IT_number           221
_symmetry_space_group_name_Hall  '-P 4 2 3'
_symmetry_space_group_name_H-M   'P m -3 m'
_cell_angle_alpha                90
_cell_angle_beta                 90
_cell_angle_gamma                90
_cell_formula_units_Z            1
_cell_length_a                   4.0364
_cell_length_b                   4.0364
_cell_length_c                   4.0364
_cell_volume                     65.763
_citation_journal_id_ASTM        JPFMAT
_cod_data_source_file            Gardner_JPFMAT_1972_1804.cif
_cod_data_source_block           Pd3Yb1
_cod_original_cell_volume        65.76314
_cod_original_formula_sum        'Pd3 Yb1'
_cod_database_code               1523656
loop_
_symmetry_equiv_pos_as_xyz
x,y,z
-y,x,z
-x,-y,z
y,-x,z
x,-y,-z
y,x,-z
-x,y,-z
-y,-x,-z
z,x,y
-x,z,y
-z,-x,y
x,-z,y
z,-x,-y
x,z,-y
-z,x,-y
-x,-z,-y
y,z,x
y,-z,-x
z,y,-x
-y,z,-x
-z,-y,-x
-y,-z,x
z,-y,x
-z,y,x
-x,-y,-z
y,-x,-z
x,y,-z
-y,x,-z
-x,y,z
-y,-x,z
x,-y,z
y,x,z
-z,-x,-y
x,-z,-y
z,x,-y
-x,z,-y
-z,x,y
-x,-z,y
z,-x,y
x,z,y
-y,-z,-x
-y,z,x
-z,-y,x
y,-z,x
z,y,x
y,z,-x
-z,y,-x
z,-y,-x
loop_
_atom_site_label
_atom_site_type_symbol
_atom_site_fract_x
_atom_site_fract_y
_atom_site_fract_z
_atom_site_occupancy
_atom_site_U_iso_or_equiv
Yb1 Yb 0 0 0 1 0.0
Pd1 Pd 0 0.5 0.5 1 0.0
