#------------------------------------------------------------------------------
#$Date: 2016-02-13 21:28:24 +0200 (Sat, 13 Feb 2016) $
#$Revision: 176429 $
#$URL: svn://www.crystallography.net/cod/cif/1/52/39/1523915.cif $
#------------------------------------------------------------------------------
#
# This file is available in the Crystallography Open Database (COD),
# http://www.crystallography.net/
#
# All data on this site have been placed in the public domain by the
# contributors.
#
data_1523915
loop_
_publ_author_name
'Jayaraman, A.'
'Sherwood, R.C.'
'Corenzwit, E.'
'Williams, H.J.'
_publ_section_title
;
 Pressure-induced phase transformastions and magnetic ordering in some
 intra-rare-earth alloys and samarium
;
_journal_name_full
'Physical Review (1,1893-132,1963/141,1966-188,1969)'
_journal_page_first              502
_journal_page_last               508
_journal_volume                  148
_journal_year                    1966
_chemical_formula_sum            'Nd Tm'
_chemical_name_systematic        '(Nd Tm)'
_space_group_IT_number           194
_symmetry_space_group_name_Hall  '-P 6c 2c'
_symmetry_space_group_name_H-M   'P 63/m m c'
_cell_angle_alpha                90
_cell_angle_beta                 90
_cell_angle_gamma                120
_cell_formula_units_Z            2
_cell_length_a                   3.6
_cell_length_b                   3.6
_cell_length_c                   11.5
_cell_volume                     129.072
_citation_journal_id_ASTM        PHRVAO
_cod_data_source_file            Jayaraman_PHRVAO_1966_1445.cif
_cod_data_source_block           Nd1Tm1
_cod_original_cell_volume        129.0724
_cod_original_formula_sum        'Nd1 Tm1'
_cod_database_code               1523915
loop_
_symmetry_equiv_pos_as_xyz
x,y,z
x-y,x,z+1/2
-y,x-y,z
-x,-y,z+1/2
-x+y,-x,z
y,-x+y,z+1/2
-y,-x,-z+1/2
x-y,-y,-z
x,x-y,-z+1/2
y,x,-z
-x+y,y,-z+1/2
-x,-x+y,-z
-x,-y,-z
-x+y,-x,-z-1/2
y,-x+y,-z
x,y,-z-1/2
x-y,x,-z
-y,x-y,-z-1/2
y,x,z-1/2
-x+y,y,z
-x,-x+y,z-1/2
-y,-x,z
x-y,-y,z-1/2
x,x-y,z
loop_
_atom_site_label
_atom_site_type_symbol
_atom_site_fract_x
_atom_site_fract_y
_atom_site_fract_z
_atom_site_occupancy
_atom_site_U_iso_or_equiv
Nd2 Nd 0.3333 0.6667 0.25 0.5 0.0
Tm1 Tm 0 0 0 0.5 0.0
Nd1 Nd 0 0 0 0.5 0.0
Tm2 Tm 0.3333 0.6667 0.25 0.5 0.0
