#------------------------------------------------------------------------------
#$Date: 2015-07-11 05:04:42 +0300 (Sat, 11 Jul 2015) $
#$Revision: 144330 $
#$URL: svn://www.crystallography.net/cod/cif/1/52/37/1523708.cif $
#------------------------------------------------------------------------------
#
# This file is available in the Crystallography Open Database (COD),
# http://www.crystallography.net/
#
# All data on this site have been placed in the public domain by the
# contributors.
#
data_1523708
loop_
_publ_author_name
'Givord, D.'
'Givord, F.'
'Lemaire, R.'
'Shah, J.S.'
'James, W.J.'
_publ_section_title
;
 Evidence of disordered substitutions in the "Th2 Ni17-type" structure.
 Exact structure determination of the Th-Ni, Y-Ni and Er-Co compounds
;
_journal_name_full               'Journal of the Less-Common Metals'
_journal_page_first              389
_journal_page_last               396
_journal_volume                  29
_journal_year                    1972
_chemical_formula_sum            'Ni17.3 Y1.85'
_chemical_name_systematic        '(Ni17.3 Y1.85)'
_space_group_IT_number           194
_symmetry_space_group_name_Hall  '-P 6c 2c'
_symmetry_space_group_name_H-M   'P 63/m m c'
_cell_angle_alpha                90
_cell_angle_beta                 90
_cell_angle_gamma                120
_cell_formula_units_Z            2
_cell_length_a                   8.3
_cell_length_b                   8.3
_cell_length_c                   8.04
_cell_volume                     479.670
_citation_journal_id_ASTM        JCOMAH
_cod_data_source_file            Givord_JCOMAH_1972_1578.cif
_cod_data_source_block           Ni17.3Y1.85
_cod_original_cell_volume        479.6703
_cod_database_code               1523708
loop_
_symmetry_equiv_pos_as_xyz
x,y,z
x-y,x,z+1/2
-y,x-y,z
-x,-y,z+1/2
-x+y,-x,z
y,-x+y,z+1/2
-y,-x,-z+1/2
x-y,-y,-z
x,x-y,-z+1/2
y,x,-z
-x+y,y,-z+1/2
-x,-x+y,-z
-x,-y,-z
-x+y,-x,-z-1/2
y,-x+y,-z
x,y,-z-1/2
x-y,x,-z
-y,x-y,-z-1/2
y,x,z-1/2
-x+y,y,z
-x,-x+y,z-1/2
-y,-x,z
x-y,-y,z-1/2
x,x-y,z
loop_
_atom_site_label
_atom_site_type_symbol
_atom_site_fract_x
_atom_site_fract_y
_atom_site_fract_z
_atom_site_occupancy
_atom_site_U_iso_or_equiv
Ni6 Ni 0.3116 0.9783 0.25 0.15 0.0
Y2 Y 0.3333 0.6667 0.25 0.03 0.0
Y1 Y 0 0 0.25 0.82 0.0
Ni3 Ni 0.5 0 0 1 0.0
Ni5 Ni 0.2915 0 0.25 0.03 0.0
Ni7 Ni 0.166 0.332 0.9767 0.82 0.0
Y3 Y 0.3333 0.6667 0.75 1 0.0
Ni1 Ni 0 0 0.1105 0.18 0.0
Ni2 Ni 0.3333 0.6667 0.107 0.97 0.0
Ni4 Ni 0.3335 0.9582 0.25 0.82 0.0
Ni8 Ni 0.166 0.332 0 0.18 0.0
