#------------------------------------------------------------------------------
#$Date: 2015-07-11 05:23:30 +0300 (Sat, 11 Jul 2015) $
#$Revision: 144435 $
#$URL: svn://www.crystallography.net/cod/cif/1/52/38/1523812.cif $
#------------------------------------------------------------------------------
#
# This file is available in the Crystallography Open Database (COD),
# http://www.crystallography.net/
#
# All data on this site have been placed in the public domain by the
# contributors.
#
data_1523812
loop_
_publ_author_name
'Hellner, E.'
_publ_section_title
;
 Das System Nickel-Gallium
;
_journal_name_full               'Zeitschrift fuer Metallkunde'
_journal_page_first              480
_journal_page_last               484
_journal_volume                  41
_journal_year                    1950
_chemical_formula_sum            'Ga0.35 Ni0.65'
_chemical_name_systematic        'Ga0.35 Ni0.65'
_space_group_IT_number           139
_symmetry_space_group_name_Hall  '-I 4 2'
_symmetry_space_group_name_H-M   'I 4/m m m'
_cell_angle_alpha                90
_cell_angle_beta                 90
_cell_angle_gamma                90
_cell_formula_units_Z            2
_cell_length_a                   3.75
_cell_length_b                   3.75
_cell_length_c                   4.78
_cell_volume                     67.219
_citation_journal_id_ASTM        ZEMTAE
_cod_data_source_file            Hellner_ZEMTAE_1950_264.cif
_cod_data_source_block           Ga0.35Ni0.65
_cod_original_cell_volume        67.21875
_cod_database_code               1523812
loop_
_symmetry_equiv_pos_as_xyz
x,y,z
-y,x,z
-x,-y,z
y,-x,z
x,-y,-z
y,x,-z
-x,y,-z
-y,-x,-z
-x,-y,-z
y,-x,-z
x,y,-z
-y,x,-z
-x,y,z
-y,-x,z
x,-y,z
y,x,z
x+1/2,y+1/2,z+1/2
-y+1/2,x+1/2,z+1/2
-x+1/2,-y+1/2,z+1/2
y+1/2,-x+1/2,z+1/2
x+1/2,-y+1/2,-z+1/2
y+1/2,x+1/2,-z+1/2
-x+1/2,y+1/2,-z+1/2
-y+1/2,-x+1/2,-z+1/2
-x+1/2,-y+1/2,-z+1/2
y+1/2,-x+1/2,-z+1/2
x+1/2,y+1/2,-z+1/2
-y+1/2,x+1/2,-z+1/2
-x+1/2,y+1/2,z+1/2
-y+1/2,-x+1/2,z+1/2
x+1/2,-y+1/2,z+1/2
y+1/2,x+1/2,z+1/2
loop_
_atom_site_label
_atom_site_type_symbol
_atom_site_fract_x
_atom_site_fract_y
_atom_site_fract_z
_atom_site_occupancy
_atom_site_U_iso_or_equiv
Ni1 Ni 0 0 0 0.65 0.0
Ga1 Ga 0 0 0 0.35 0.0
