#------------------------------------------------------------------------------
#$Date: 2016-02-13 21:28:24 +0200 (Sat, 13 Feb 2016) $
#$Revision: 176429 $
#$URL: svn://www.crystallography.net/cod/cif/1/52/37/1523779.cif $
#------------------------------------------------------------------------------
#
# This file is available in the Crystallography Open Database (COD),
# http://www.crystallography.net/
#
# All data on this site have been placed in the public domain by the
# contributors.
#
data_1523779
loop_
_publ_author_name
'Harris, I.R.'
'Raynor, G.V.'
_publ_section_title
;
 Rare-earth intermediate phases. II. Phases formed with palladium
;
_journal_name_full               'Journal of the Less-Common Metals'
_journal_page_first              263
_journal_page_last               269
_journal_volume                  9
_journal_year                    1965
_chemical_formula_sum            'Pd3 Tb'
_chemical_name_systematic        'Pd3 Tb'
_space_group_IT_number           221
_symmetry_space_group_name_Hall  '-P 4 2 3'
_symmetry_space_group_name_H-M   'P m -3 m'
_cell_angle_alpha                90
_cell_angle_beta                 90
_cell_angle_gamma                90
_cell_formula_units_Z            1
_cell_length_a                   4.0773
_cell_length_b                   4.0773
_cell_length_c                   4.0773
_cell_volume                     67.783
_citation_journal_id_ASTM        JCOMAH
_cod_data_source_file            Harris_JCOMAH_1965_1773.cif
_cod_data_source_block           Pd3Tb1
_cod_original_cell_volume        67.78257
_cod_original_formula_sum        'Pd3 Tb1'
_cod_database_code               1523779
loop_
_symmetry_equiv_pos_as_xyz
x,y,z
-y,x,z
-x,-y,z
y,-x,z
x,-y,-z
y,x,-z
-x,y,-z
-y,-x,-z
z,x,y
-x,z,y
-z,-x,y
x,-z,y
z,-x,-y
x,z,-y
-z,x,-y
-x,-z,-y
y,z,x
y,-z,-x
z,y,-x
-y,z,-x
-z,-y,-x
-y,-z,x
z,-y,x
-z,y,x
-x,-y,-z
y,-x,-z
x,y,-z
-y,x,-z
-x,y,z
-y,-x,z
x,-y,z
y,x,z
-z,-x,-y
x,-z,-y
z,x,-y
-x,z,-y
-z,x,y
-x,-z,y
z,-x,y
x,z,y
-y,-z,-x
-y,z,x
-z,-y,x
y,-z,x
z,y,x
y,z,-x
-z,y,-x
z,-y,-x
loop_
_atom_site_label
_atom_site_type_symbol
_atom_site_fract_x
_atom_site_fract_y
_atom_site_fract_z
_atom_site_occupancy
_atom_site_U_iso_or_equiv
Tb1 Tb 0 0 0 1 0.0
Pd1 Pd 0 0.5 0.5 1 0.0
