#------------------------------------------------------------------------------
#$Date: 2016-02-13 21:28:24 +0200 (Sat, 13 Feb 2016) $
#$Revision: 176429 $
#$URL: svn://www.crystallography.net/cod/cif/1/52/33/1523302.cif $
#------------------------------------------------------------------------------
#
# This file is available in the Crystallography Open Database (COD),
# http://www.crystallography.net/
#
# All data on this site have been placed in the public domain by the
# contributors.
#
data_1523302
loop_
_publ_author_name
'Bronger, W.'
'Nacken, B.'
'Ploog, K.'
_publ_section_title
;
 Zur Synthese und Struktur von Li2 Pt und Li Pt
;
_journal_name_full               'Journal of the Less-Common Metals'
_journal_page_first              143
_journal_page_last               146
_journal_volume                  43
_journal_year                    1975
_chemical_formula_sum            'Li Pt'
_chemical_name_systematic        'Li Pt'
_space_group_IT_number           187
_symmetry_space_group_name_Hall  'P -6 2'
_symmetry_space_group_name_H-M   'P -6 m 2'
_cell_angle_alpha                90
_cell_angle_beta                 90
_cell_angle_gamma                120
_cell_formula_units_Z            1
_cell_length_a                   2.728
_cell_length_b                   2.728
_cell_length_c                   4.226
_cell_volume                     27.236
_citation_journal_id_ASTM        JCOMAH
_cod_data_source_file            Bronger_JCOMAH_1975_997.cif
_cod_data_source_block           Li1Pt1
_cod_original_cell_volume        27.23634
_cod_original_formula_sum        'Li1 Pt1'
_cod_database_code               1523302
loop_
_symmetry_equiv_pos_as_xyz
x,y,z
-x+y,-x,-z
-y,x-y,z
x,y,-z
-x+y,-x,z
-y,x-y,-z
-y,-x,-z
-x+y,y,z
x,x-y,-z
-y,-x,z
-x+y,y,-z
x,x-y,z
loop_
_atom_site_label
_atom_site_type_symbol
_atom_site_fract_x
_atom_site_fract_y
_atom_site_fract_z
_atom_site_occupancy
_atom_site_U_iso_or_equiv
Li1 Li 0.3333 0.6667 0.5 1 0.0
Pt1 Pt 0 0 0 1 0.0
