#------------------------------------------------------------------------------
#$Date: 2016-02-13 21:28:24 +0200 (Sat, 13 Feb 2016) $
#$Revision: 176429 $
#$URL: svn://www.crystallography.net/cod/cif/1/52/36/1523660.cif $
#------------------------------------------------------------------------------
#
# This file is available in the Crystallography Open Database (COD),
# http://www.crystallography.net/
#
# All data on this site have been placed in the public domain by the
# contributors.
#
data_1523660
loop_
_publ_author_name
'Geballe, T.H.'
'Matthias, B.T.'
'Compton, V.B.'
'Corenzwit, E.'
'Longinotti, L.D.'
'Hull, G.W.jr.'
_publ_section_title
;
 Superconductivity in binary alloy system of the rare earths and of
 thorium with Pt-group metals
;
_journal_name_full
'Physical Review, Section A (133,1964-188,1969)'
_journal_page_first              119
_journal_page_last               127
_journal_volume                  137
_journal_year                    1965
_chemical_formula_sum            'Lu Rh'
_chemical_name_systematic        'Lu Rh'
_space_group_IT_number           221
_symmetry_space_group_name_Hall  '-P 4 2 3'
_symmetry_space_group_name_H-M   'P m -3 m'
_cell_angle_alpha                90
_cell_angle_beta                 90
_cell_angle_gamma                90
_cell_formula_units_Z            1
_cell_length_a                   3.334
_cell_length_b                   3.334
_cell_length_c                   3.334
_cell_volume                     37.059
_citation_journal_id_ASTM        PRVAAH
_cod_data_source_file            Geballe_PRVAAH_1965_1042.cif
_cod_data_source_block           Lu1Rh1
_cod_original_cell_volume        37.05927
_cod_original_formula_sum        'Lu1 Rh1'
_cod_database_code               1523660
loop_
_symmetry_equiv_pos_as_xyz
x,y,z
-y,x,z
-x,-y,z
y,-x,z
x,-y,-z
y,x,-z
-x,y,-z
-y,-x,-z
z,x,y
-x,z,y
-z,-x,y
x,-z,y
z,-x,-y
x,z,-y
-z,x,-y
-x,-z,-y
y,z,x
y,-z,-x
z,y,-x
-y,z,-x
-z,-y,-x
-y,-z,x
z,-y,x
-z,y,x
-x,-y,-z
y,-x,-z
x,y,-z
-y,x,-z
-x,y,z
-y,-x,z
x,-y,z
y,x,z
-z,-x,-y
x,-z,-y
z,x,-y
-x,z,-y
-z,x,y
-x,-z,y
z,-x,y
x,z,y
-y,-z,-x
-y,z,x
-z,-y,x
y,-z,x
z,y,x
y,z,-x
-z,y,-x
z,-y,-x
loop_
_atom_site_label
_atom_site_type_symbol
_atom_site_fract_x
_atom_site_fract_y
_atom_site_fract_z
_atom_site_occupancy
_atom_site_U_iso_or_equiv
Rh1 Rh 0.5 0.5 0.5 1 0.0
Lu1 Lu 0 0 0 1 0.0
