#------------------------------------------------------------------------------
#$Date: 2015-07-11 05:03:55 +0300 (Sat, 11 Jul 2015) $
#$Revision: 144325 $
#$URL: svn://www.crystallography.net/cod/cif/1/52/37/1523703.cif $
#------------------------------------------------------------------------------
#
# This file is available in the Crystallography Open Database (COD),
# http://www.crystallography.net/
#
# All data on this site have been placed in the public domain by the
# contributors.
#
data_1523703
loop_
_publ_author_name
'Giorgi, A.L.'
'Szklarz, E.G.'
_publ_section_title
;
 Superconductivity in the niobium-technetium system
;
_journal_name_full               'Journal of the Less-Common Metals'
_journal_page_first              173
_journal_page_last               175
_journal_volume                  20
_journal_year                    1970
_chemical_formula_sum            'Nb0.06 Tc0.94'
_chemical_name_systematic        '(Nb0.06 Tc0.94)'
_space_group_IT_number           194
_symmetry_space_group_name_Hall  '-P 6c 2c'
_symmetry_space_group_name_H-M   'P 63/m m c'
_cell_angle_alpha                90
_cell_angle_beta                 90
_cell_angle_gamma                120
_cell_formula_units_Z            2
_cell_length_a                   2.757
_cell_length_b                   2.757
_cell_length_c                   4.432
_cell_volume                     29.175
_citation_journal_id_ASTM        JCOMAH
_cod_data_source_file            Giorgi_JCOMAH_1970_1406.cif
_cod_data_source_block           Nb0.06Tc0.94
_cod_original_cell_volume        29.17453
_cod_database_code               1523703
loop_
_symmetry_equiv_pos_as_xyz
x,y,z
x-y,x,z+1/2
-y,x-y,z
-x,-y,z+1/2
-x+y,-x,z
y,-x+y,z+1/2
-y,-x,-z+1/2
x-y,-y,-z
x,x-y,-z+1/2
y,x,-z
-x+y,y,-z+1/2
-x,-x+y,-z
-x,-y,-z
-x+y,-x,-z-1/2
y,-x+y,-z
x,y,-z-1/2
x-y,x,-z
-y,x-y,-z-1/2
y,x,z-1/2
-x+y,y,z
-x,-x+y,z-1/2
-y,-x,z
x-y,-y,z-1/2
x,x-y,z
loop_
_atom_site_label
_atom_site_type_symbol
_atom_site_fract_x
_atom_site_fract_y
_atom_site_fract_z
_atom_site_occupancy
_atom_site_U_iso_or_equiv
Nb1 Nb 0.3333 0.6667 0.25 0.06 0.0
Tc1 Tc 0.3333 0.6667 0.25 0.94 0.0
