#------------------------------------------------------------------------------
#$Date: 2016-02-13 21:28:24 +0200 (Sat, 13 Feb 2016) $
#$Revision: 176429 $
#$URL: svn://www.crystallography.net/cod/cif/1/52/30/1523057.cif $
#------------------------------------------------------------------------------
#
# This file is available in the Crystallography Open Database (COD),
# http://www.crystallography.net/
#
# All data on this site have been placed in the public domain by the
# contributors.
#
data_1523057
loop_
_publ_author_name
'Walter, U.'
'Wohlleben, D.'
_publ_section_title
;
 Unusual magnetic response of intermediate-valent Yb Pd and Yb3 Pd4 as
 studied by inelastic neutron scattering
;
_journal_name_full
'Physical Review, Serie 3. B - Condensed Matter (18,1978-)'
_journal_page_first              3576
_journal_page_last               3584
_journal_volume                  35
_journal_year                    1987
_chemical_formula_sum            'Lu Pd'
_chemical_name_systematic        'Lu Pd'
_space_group_IT_number           221
_symmetry_space_group_name_Hall  '-P 4 2 3'
_symmetry_space_group_name_H-M   'P m -3 m'
_cell_angle_alpha                90
_cell_angle_beta                 90
_cell_angle_gamma                90
_cell_formula_units_Z            1
_cell_length_a                   3.422
_cell_length_b                   3.422
_cell_length_c                   3.422
_cell_volume                     40.072
_citation_journal_id_ASTM        PRBMDO
_cod_data_source_file            Walter_PRBMDO_1987_1035.cif
_cod_data_source_block           Lu1Pd1
_cod_original_cell_volume        40.0719
_cod_original_formula_sum        'Lu1 Pd1'
_cod_database_code               1523057
loop_
_symmetry_equiv_pos_as_xyz
x,y,z
-y,x,z
-x,-y,z
y,-x,z
x,-y,-z
y,x,-z
-x,y,-z
-y,-x,-z
z,x,y
-x,z,y
-z,-x,y
x,-z,y
z,-x,-y
x,z,-y
-z,x,-y
-x,-z,-y
y,z,x
y,-z,-x
z,y,-x
-y,z,-x
-z,-y,-x
-y,-z,x
z,-y,x
-z,y,x
-x,-y,-z
y,-x,-z
x,y,-z
-y,x,-z
-x,y,z
-y,-x,z
x,-y,z
y,x,z
-z,-x,-y
x,-z,-y
z,x,-y
-x,z,-y
-z,x,y
-x,-z,y
z,-x,y
x,z,y
-y,-z,-x
-y,z,x
-z,-y,x
y,-z,x
z,y,x
y,z,-x
-z,y,-x
z,-y,-x
loop_
_atom_site_label
_atom_site_type_symbol
_atom_site_fract_x
_atom_site_fract_y
_atom_site_fract_z
_atom_site_occupancy
_atom_site_U_iso_or_equiv
Pd1 Pd 0.5 0.5 0.5 1 0.0
Lu1 Lu 0 0 0 1 0.0
