#------------------------------------------------------------------------------
#$Date: 2016-02-13 21:28:24 +0200 (Sat, 13 Feb 2016) $
#$Revision: 176429 $
#$URL: svn://www.crystallography.net/cod/cif/1/52/39/1523928.cif $
#------------------------------------------------------------------------------
#
# This file is available in the Crystallography Open Database (COD),
# http://www.crystallography.net/
#
# All data on this site have been placed in the public domain by the
# contributors.
#
data_1523928
loop_
_publ_author_name
'Johnson, Q.'
'Bedford, R.G.'
'Catalano, E.'
_publ_section_title
;
 The crystal structure of Yb Pt
;
_journal_name_full               'Journal of the Less-Common Metals'
_journal_page_first              335
_journal_page_last               336
_journal_volume                  24
_journal_year                    1971
_chemical_formula_sum            'Pt Yb'
_chemical_name_systematic        'Pt Yb'
_space_group_IT_number           62
_symmetry_space_group_name_Hall  '-P 2ac 2n'
_symmetry_space_group_name_H-M   'P n m a'
_cell_angle_alpha                90
_cell_angle_beta                 90
_cell_angle_gamma                90
_cell_formula_units_Z            4
_cell_length_a                   6.805
_cell_length_b                   4.416
_cell_length_c                   5.492
_cell_volume                     165.039
_citation_journal_id_ASTM        JCOMAH
_cod_data_source_file            Johnson_JCOMAH_1971_1877.cif
_cod_data_source_block           Pt1Yb1
_cod_original_cell_volume        165.0394
_cod_original_formula_sum        'Pt1 Yb1'
_cod_database_code               1523928
loop_
_symmetry_equiv_pos_as_xyz
x,y,z
-x+1/2,-y,z+1/2
x+1/2,-y+1/2,-z+1/2
-x,y+1/2,-z
-x,-y,-z
x-1/2,y,-z-1/2
-x-1/2,y-1/2,z-1/2
x,-y-1/2,z
loop_
_atom_site_label
_atom_site_type_symbol
_atom_site_fract_x
_atom_site_fract_y
_atom_site_fract_z
_atom_site_occupancy
_atom_site_U_iso_or_equiv
Yb1 Yb 0.185 0.25 0.144 1 0.0
Pt1 Pt 0.04 0.25 0.653 1 0.0
