#------------------------------------------------------------------------------
#$Date: 2016-02-13 21:28:24 +0200 (Sat, 13 Feb 2016) $
#$Revision: 176429 $
#$URL: svn://www.crystallography.net/cod/cif/1/52/39/1523943.cif $
#------------------------------------------------------------------------------
#
# This file is available in the Crystallography Open Database (COD),
# http://www.crystallography.net/
#
# All data on this site have been placed in the public domain by the
# contributors.
#
data_1523943
loop_
_publ_author_name
'Junod, A.'
'Flukiger, R.'
'Muller, J.'
_publ_section_title
;
 Supraconductivite et chaleur specifique dans les alliages A15 a base de
 titane
;
_journal_name_full               'Journal of Physics and Chemistry of Solids'
_journal_page_first              27
_journal_page_last               31
_journal_volume                  37
_journal_year                    1976
_chemical_formula_sum            'Pt Ti3'
_chemical_name_systematic        'Pt Ti3'
_space_group_IT_number           223
_symmetry_space_group_name_Hall  '-P 4n 2 3'
_symmetry_space_group_name_H-M   'P m -3 n'
_cell_angle_alpha                90
_cell_angle_beta                 90
_cell_angle_gamma                90
_cell_formula_units_Z            2
_cell_length_a                   5.03
_cell_length_b                   5.03
_cell_length_c                   5.03
_cell_volume                     127.264
_citation_journal_id_ASTM        JPCSAW
_cod_data_source_file            Junod_JPCSAW_1976_1859.cif
_cod_data_source_block           Pt1Ti3
_cod_original_cell_volume        127.2635
_cod_original_formula_sum        'Pt1 Ti3'
_cod_database_code               1523943
loop_
_symmetry_equiv_pos_as_xyz
x,y,z
-y+1/2,x+1/2,z+1/2
-x,-y,z
y+1/2,-x+1/2,z+1/2
x,-y,-z
y+1/2,x+1/2,-z+1/2
-x,y,-z
-y+1/2,-x+1/2,-z+1/2
z,x,y
-x+1/2,z+1/2,y+1/2
-z,-x,y
x+1/2,-z+1/2,y+1/2
z,-x,-y
x+1/2,z+1/2,-y+1/2
-z,x,-y
-x+1/2,-z+1/2,-y+1/2
y,z,x
y,-z,-x
z+1/2,y+1/2,-x+1/2
-y,z,-x
-z+1/2,-y+1/2,-x+1/2
-y,-z,x
z+1/2,-y+1/2,x+1/2
-z+1/2,y+1/2,x+1/2
-x,-y,-z
y-1/2,-x-1/2,-z-1/2
x,y,-z
-y-1/2,x-1/2,-z-1/2
-x,y,z
-y-1/2,-x-1/2,z-1/2
x,-y,z
y-1/2,x-1/2,z-1/2
-z,-x,-y
x-1/2,-z-1/2,-y-1/2
z,x,-y
-x-1/2,z-1/2,-y-1/2
-z,x,y
-x-1/2,-z-1/2,y-1/2
z,-x,y
x-1/2,z-1/2,y-1/2
-y,-z,-x
-y,z,x
-z-1/2,-y-1/2,x-1/2
y,-z,x
z-1/2,y-1/2,x-1/2
y,z,-x
-z-1/2,y-1/2,-x-1/2
z-1/2,-y-1/2,-x-1/2
loop_
_atom_site_label
_atom_site_type_symbol
_atom_site_fract_x
_atom_site_fract_y
_atom_site_fract_z
_atom_site_occupancy
_atom_site_U_iso_or_equiv
Ti1 Ti 0.25 0 0.5 1 0.0
Pt1 Pt 0 0 0 1 0.0
