#------------------------------------------------------------------------------
#$Date: 2015-07-11 00:11:45 +0300 (Sat, 11 Jul 2015) $
#$Revision: 143481 $
#$URL: svn://www.crystallography.net/cod/cif/1/52/30/1523079.cif $
#------------------------------------------------------------------------------
#
# This file is available in the Crystallography Open Database (COD),
# http://www.crystallography.net/
#
# All data on this site have been placed in the public domain by the
# contributors.
#
data_1523079
loop_
_publ_author_name
'Westin, L.'
_publ_section_title
;
 The crystal structure of Rh7 Mg22
;
_journal_name_full               'Chemica Scripta'
_journal_page_first              127
_journal_page_last               135
_journal_volume                  1
_journal_year                    1971
_chemical_formula_sum            'Mg44 Rh7'
_chemical_name_systematic        'Mg44 Rh7'
_space_group_IT_number           216
_symmetry_space_group_name_Hall  'F -4 2 3'
_symmetry_space_group_name_H-M   'F -4 3 m'
_cell_angle_alpha                90
_cell_angle_beta                 90
_cell_angle_gamma                90
_cell_formula_units_Z            8
_cell_length_a                   20.148
_cell_length_b                   20.148
_cell_length_c                   20.148
_cell_volume                     8178.917
_citation_journal_id_ASTM        CSRPB9
_cod_data_source_file            Westin_CSRPB9_1971_1079.cif
_cod_data_source_block           Mg44Rh7
_cod_original_cell_volume        8178.918
_cod_database_code               1523079
loop_
_symmetry_equiv_pos_as_xyz
x,y,z
y,-x,-z
-x,-y,z
-y,x,-z
x,-y,-z
-y,-x,z
-x,y,-z
y,x,z
z,x,y
x,-z,-y
-z,-x,y
-x,z,-y
z,-x,-y
-x,-z,y
-z,x,-y
x,z,y
y,z,x
y,-z,-x
-z,-y,x
-y,z,-x
z,y,x
-y,-z,x
-z,y,-x
z,-y,-x
x,y+1/2,z+1/2
y,-x+1/2,-z+1/2
-x,-y+1/2,z+1/2
-y,x+1/2,-z+1/2
x,-y+1/2,-z+1/2
-y,-x+1/2,z+1/2
-x,y+1/2,-z+1/2
y,x+1/2,z+1/2
z,x+1/2,y+1/2
x,-z+1/2,-y+1/2
-z,-x+1/2,y+1/2
-x,z+1/2,-y+1/2
z,-x+1/2,-y+1/2
-x,-z+1/2,y+1/2
-z,x+1/2,-y+1/2
x,z+1/2,y+1/2
y,z+1/2,x+1/2
y,-z+1/2,-x+1/2
-z,-y+1/2,x+1/2
-y,z+1/2,-x+1/2
z,y+1/2,x+1/2
-y,-z+1/2,x+1/2
-z,y+1/2,-x+1/2
z,-y+1/2,-x+1/2
x+1/2,y,z+1/2
y+1/2,-x,-z+1/2
-x+1/2,-y,z+1/2
-y+1/2,x,-z+1/2
x+1/2,-y,-z+1/2
-y+1/2,-x,z+1/2
-x+1/2,y,-z+1/2
y+1/2,x,z+1/2
z+1/2,x,y+1/2
x+1/2,-z,-y+1/2
-z+1/2,-x,y+1/2
-x+1/2,z,-y+1/2
z+1/2,-x,-y+1/2
-x+1/2,-z,y+1/2
-z+1/2,x,-y+1/2
x+1/2,z,y+1/2
y+1/2,z,x+1/2
y+1/2,-z,-x+1/2
-z+1/2,-y,x+1/2
-y+1/2,z,-x+1/2
z+1/2,y,x+1/2
-y+1/2,-z,x+1/2
-z+1/2,y,-x+1/2
z+1/2,-y,-x+1/2
x+1/2,y+1/2,z
y+1/2,-x+1/2,-z
-x+1/2,-y+1/2,z
-y+1/2,x+1/2,-z
x+1/2,-y+1/2,-z
-y+1/2,-x+1/2,z
-x+1/2,y+1/2,-z
y+1/2,x+1/2,z
z+1/2,x+1/2,y
x+1/2,-z+1/2,-y
-z+1/2,-x+1/2,y
-x+1/2,z+1/2,-y
z+1/2,-x+1/2,-y
-x+1/2,-z+1/2,y
-z+1/2,x+1/2,-y
x+1/2,z+1/2,y
y+1/2,z+1/2,x
y+1/2,-z+1/2,-x
-z+1/2,-y+1/2,x
-y+1/2,z+1/2,-x
z+1/2,y+1/2,x
-y+1/2,-z+1/2,x
-z+1/2,y+1/2,-x
z+1/2,-y+1/2,-x
loop_
_atom_site_label
_atom_site_type_symbol
_atom_site_fract_x
_atom_site_fract_y
_atom_site_fract_z
_atom_site_occupancy
_atom_site_U_iso_or_equiv
Mg7 Mg 0 0 0.1824 1 0.0
Rh2 Rh 0.0833 0.0833 0.0833 1 0.0
Mg4 Mg 0.0961 0.0961 0.7206 1 0.0
Rh1 Rh 0.25 0.25 0.5867 1 0.0
Mg6 Mg 0.25 0.25 0.3553 1 0.0
Mg9 Mg 0.8338 0.8338 0.8338 1 0.0
Mg3 Mg 0.1949 0.1949 0.4806 1 0.0
Mg2 Mg 0.1072 0.1072 0.2141 1 0.0
Mg1 Mg 0.0525 0.0525 0.338 1 0.0
Rh3 Rh 0.3488 0.3488 0.3488 1 0.0
Mg11 Mg 0.9476 0.9476 0.9476 1 0.0
Mg5 Mg 0.1565 0.1565 0.9795 1 0.0
Mg10 Mg 0.5618 0.5618 0.5618 1 0.0
Mg8 Mg 0.6956 0.6956 0.6956 1 0.0
