#------------------------------------------------------------------------------
#$Date: 2015-07-11 05:16:25 +0300 (Sat, 11 Jul 2015) $
#$Revision: 144392 $
#$URL: svn://www.crystallography.net/cod/cif/1/52/37/1523770.cif $
#------------------------------------------------------------------------------
#
# This file is available in the Crystallography Open Database (COD),
# http://www.crystallography.net/
#
# All data on this site have been placed in the public domain by the
# contributors.
#
data_1523770
loop_
_publ_author_name
'Haase, D.J.'
'Steinfink, H.'
'Weiss, E.J.'
_publ_section_title
;
 Crystal chemistry of some rare earth group VI compounds
;
_journal_name_full
;
Rare Earths in Modern Science and Technology, (Rare Earth Res. Conf.)
;
_journal_page_first              535
_journal_page_last               544
_journal_volume                  1964
_journal_year                    1965
_chemical_formula_sum            'La0.5 Te0.5'
_chemical_name_systematic        '(La0.5 Te0.5)'
_space_group_IT_number           221
_symmetry_space_group_name_Hall  '-P 4 2 3'
_symmetry_space_group_name_H-M   'P m -3 m'
_cell_angle_alpha                90
_cell_angle_beta                 90
_cell_angle_gamma                90
_cell_formula_units_Z            1
_cell_length_a                   3.218
_cell_length_b                   3.218
_cell_length_c                   3.218
_cell_volume                     33.324
_citation_journal_id_ASTM        41VWAS
_cod_data_source_file            Haase_41VWAS_1965_951.cif
_cod_data_source_block           La0.5Te0.5
_cod_original_cell_volume        33.32407
_cod_database_code               1523770
loop_
_symmetry_equiv_pos_as_xyz
x,y,z
-y,x,z
-x,-y,z
y,-x,z
x,-y,-z
y,x,-z
-x,y,-z
-y,-x,-z
z,x,y
-x,z,y
-z,-x,y
x,-z,y
z,-x,-y
x,z,-y
-z,x,-y
-x,-z,-y
y,z,x
y,-z,-x
z,y,-x
-y,z,-x
-z,-y,-x
-y,-z,x
z,-y,x
-z,y,x
-x,-y,-z
y,-x,-z
x,y,-z
-y,x,-z
-x,y,z
-y,-x,z
x,-y,z
y,x,z
-z,-x,-y
x,-z,-y
z,x,-y
-x,z,-y
-z,x,y
-x,-z,y
z,-x,y
x,z,y
-y,-z,-x
-y,z,x
-z,-y,x
y,-z,x
z,y,x
y,z,-x
-z,y,-x
z,-y,-x
loop_
_atom_site_label
_atom_site_type_symbol
_atom_site_fract_x
_atom_site_fract_y
_atom_site_fract_z
_atom_site_occupancy
_atom_site_U_iso_or_equiv
La1 La+2 0 0 0 0.5 0.0
Te1 Te-2 0 0 0 0.5 0.0
