#------------------------------------------------------------------------------
#$Date: 2015-07-11 05:17:35 +0300 (Sat, 11 Jul 2015) $
#$Revision: 144397 $
#$URL: svn://www.crystallography.net/cod/cif/1/52/37/1523775.cif $
#------------------------------------------------------------------------------
#
# This file is available in the Crystallography Open Database (COD),
# http://www.crystallography.net/
#
# All data on this site have been placed in the public domain by the
# contributors.
#
data_1523775
loop_
_publ_author_name
'Hardie, D.'
'Parkins, R.N.'
_publ_section_title
;
 Lattice spacing relationships in magnesium solid solutions
;
_journal_name_full               'Philosophical Magazine, Serie 8(1956-)'
_journal_page_first              815
_journal_page_last               825
_journal_volume                  4
_journal_year                    1959
_chemical_formula_sum            'Li0.14 Mg0.86'
_chemical_name_systematic        '(Li0.14 Mg0.86)'
_space_group_IT_number           194
_symmetry_space_group_name_Hall  '-P 6c 2c'
_symmetry_space_group_name_H-M   'P 63/m m c'
_cell_angle_alpha                90
_cell_angle_beta                 90
_cell_angle_gamma                120
_cell_formula_units_Z            2
_cell_length_a                   3.1994
_cell_length_b                   3.1994
_cell_length_c                   5.1702
_cell_volume                     45.833
_citation_journal_id_ASTM        PHMA83
_cod_data_source_file            Hardie_PHMA83_1959_964.cif
_cod_data_source_block           Li0.14Mg0.86
_cod_original_cell_volume        45.83266
_cod_database_code               1523775
loop_
_symmetry_equiv_pos_as_xyz
x,y,z
x-y,x,z+1/2
-y,x-y,z
-x,-y,z+1/2
-x+y,-x,z
y,-x+y,z+1/2
-y,-x,-z+1/2
x-y,-y,-z
x,x-y,-z+1/2
y,x,-z
-x+y,y,-z+1/2
-x,-x+y,-z
-x,-y,-z
-x+y,-x,-z-1/2
y,-x+y,-z
x,y,-z-1/2
x-y,x,-z
-y,x-y,-z-1/2
y,x,z-1/2
-x+y,y,z
-x,-x+y,z-1/2
-y,-x,z
x-y,-y,z-1/2
x,x-y,z
loop_
_atom_site_label
_atom_site_type_symbol
_atom_site_fract_x
_atom_site_fract_y
_atom_site_fract_z
_atom_site_occupancy
_atom_site_U_iso_or_equiv
Li1 Li 0.3333 0.6667 0.25 0.14 0.0
Mg1 Mg 0.3333 0.6667 0.25 0.86 0.0
