#------------------------------------------------------------------------------
#$Date: 2015-07-11 02:55:11 +0300 (Sat, 11 Jul 2015) $
#$Revision: 143857 $
#$URL: svn://www.crystallography.net/cod/cif/1/52/32/1523243.cif $
#------------------------------------------------------------------------------
#
# This file is available in the Crystallography Open Database (COD),
# http://www.crystallography.net/
#
# All data on this site have been placed in the public domain by the
# contributors.
#
data_1523243
loop_
_publ_author_name
'Beznosikova, A.V.'
'Chebotarev, N.T.'
'Luk'yanov, A.S.'
'Chernyi, A.V.'
'Smirnova, A.E.'
_publ_section_title
;
 Crystal structures of Pu5 Ru3, Ph5 Rh3, Pu5 Os3, Pu5 Ir3, Pu5 Pt3
;
_journal_name_full               'Atomnaya Energiya'
_journal_page_first              144
_journal_page_last               148
_journal_volume                  37
_journal_year                    1974
_chemical_formula_sum            'Pt3 Pu5'
_chemical_name_systematic        'Pt3 Pu5'
_space_group_IT_number           193
_symmetry_space_group_name_Hall  '-P 6c 2'
_symmetry_space_group_name_H-M   'P 63/m c m'
_cell_angle_alpha                90
_cell_angle_beta                 90
_cell_angle_gamma                120
_cell_formula_units_Z            2
_cell_length_a                   8.4905
_cell_length_b                   8.4905
_cell_length_c                   6.0944
_cell_volume                     380.477
_citation_journal_id_ASTM        AENGAB
_cod_data_source_file            Beznosikova_AENGAB_1974_1827.cif
_cod_data_source_block           Pt3Pu5
_cod_original_cell_volume        380.4768
_cod_database_code               1523243
loop_
_symmetry_equiv_pos_as_xyz
x,y,z
x-y,x,z+1/2
-y,x-y,z
-x,-y,z+1/2
-x+y,-x,z
y,-x+y,z+1/2
-y,-x,-z
x-y,-y,-z+1/2
x,x-y,-z
y,x,-z+1/2
-x+y,y,-z
-x,-x+y,-z+1/2
-x,-y,-z
-x+y,-x,-z-1/2
y,-x+y,-z
x,y,-z-1/2
x-y,x,-z
-y,x-y,-z-1/2
y,x,z
-x+y,y,z-1/2
-x,-x+y,z
-y,-x,z-1/2
x-y,-y,z
x,x-y,z-1/2
loop_
_atom_site_label
_atom_site_type_symbol
_atom_site_fract_x
_atom_site_fract_y
_atom_site_fract_z
_atom_site_occupancy
_atom_site_U_iso_or_equiv
Pu2 Pu 0.24 0 0.25 1 0.0
Pt1 Pt 0.606 0 0.25 1 0.0
Pu1 Pu 0.3333 0.6667 0 1 0.0
