#------------------------------------------------------------------------------
#$Date: 2016-02-13 21:28:24 +0200 (Sat, 13 Feb 2016) $
#$Revision: 176429 $
#$URL: svn://www.crystallography.net/cod/cif/1/52/35/1523588.cif $
#------------------------------------------------------------------------------
#
# This file is available in the Crystallography Open Database (COD),
# http://www.crystallography.net/
#
# All data on this site have been placed in the public domain by the
# contributors.
#
data_1523588
loop_
_publ_author_name
'Eremenko, V.N.'
'Shtepa, T.D.'
'Sirotenko, V.G.'
_publ_section_title
;
 Intermediate phases in alloys of titanium with iridium, rhodium, and
 osmium
;
_journal_name_full               'Poroshkovaya Metallurgiya'
_journal_page_first              68
_journal_page_last               72
_journal_volume                  6
_journal_year                    1966
_chemical_formula_sum            'Ir3 Ti'
_chemical_name_systematic        'Ir3 Ti'
_space_group_IT_number           221
_symmetry_space_group_name_Hall  '-P 4 2 3'
_symmetry_space_group_name_H-M   'P m -3 m'
_cell_angle_alpha                90
_cell_angle_beta                 90
_cell_angle_gamma                90
_cell_formula_units_Z            1
_cell_length_a                   3.845
_cell_length_b                   3.845
_cell_length_c                   3.845
_cell_volume                     56.845
_citation_journal_id_ASTM        PMANAI
_cod_data_source_file            Eremenko_PMANAI_1966_824.cif
_cod_data_source_block           Ir3Ti1
_cod_original_cell_volume        56.84458
_cod_original_formula_sum        'Ir3 Ti1'
_cod_database_code               1523588
loop_
_symmetry_equiv_pos_as_xyz
x,y,z
-y,x,z
-x,-y,z
y,-x,z
x,-y,-z
y,x,-z
-x,y,-z
-y,-x,-z
z,x,y
-x,z,y
-z,-x,y
x,-z,y
z,-x,-y
x,z,-y
-z,x,-y
-x,-z,-y
y,z,x
y,-z,-x
z,y,-x
-y,z,-x
-z,-y,-x
-y,-z,x
z,-y,x
-z,y,x
-x,-y,-z
y,-x,-z
x,y,-z
-y,x,-z
-x,y,z
-y,-x,z
x,-y,z
y,x,z
-z,-x,-y
x,-z,-y
z,x,-y
-x,z,-y
-z,x,y
-x,-z,y
z,-x,y
x,z,y
-y,-z,-x
-y,z,x
-z,-y,x
y,-z,x
z,y,x
y,z,-x
-z,y,-x
z,-y,-x
loop_
_atom_site_label
_atom_site_type_symbol
_atom_site_fract_x
_atom_site_fract_y
_atom_site_fract_z
_atom_site_occupancy
_atom_site_U_iso_or_equiv
Ir1 Ir 0 0.5 0.5 1 0.0
Ti1 Ti 0 0 0 1 0.0
