#------------------------------------------------------------------------------
#$Date: 2016-02-13 21:28:24 +0200 (Sat, 13 Feb 2016) $
#$Revision: 176429 $
#$URL: svn://www.crystallography.net/cod/cif/1/52/39/1523941.cif $
#------------------------------------------------------------------------------
#
# This file is available in the Crystallography Open Database (COD),
# http://www.crystallography.net/
#
# All data on this site have been placed in the public domain by the
# contributors.
#
data_1523941
loop_
_publ_author_name
'Jorda, J.L.'
'Muller, J.'
'Graf, T.'
'Schellenberg, L.'
'Cenzual, K.'
'Hertz, J.'
'Gachon, J.C.'
_publ_section_title
;
 Phase relations, thermochemistry and superconductivity in the Zr-Rh
 system
;
_journal_name_full               'Journal of the Less-Common Metals'
_journal_page_first              313
_journal_page_last               328
_journal_volume                  136
_journal_year                    1988
_chemical_formula_sum            'Rh Zr'
_chemical_name_systematic        'Rh Zr'
_space_group_IT_number           221
_symmetry_space_group_name_Hall  '-P 4 2 3'
_symmetry_space_group_name_H-M   'P m -3 m'
_cell_angle_alpha                90
_cell_angle_beta                 90
_cell_angle_gamma                90
_cell_formula_units_Z            1
_cell_length_a                   3.255
_cell_length_b                   3.255
_cell_length_c                   3.255
_cell_volume                     34.487
_citation_journal_id_ASTM        JCOMAH
_cod_data_source_file            Jorda_JCOMAH_1988_1987.cif
_cod_data_source_block           Rh1Zr1
_cod_original_cell_volume        34.48681
_cod_original_formula_sum        'Rh1 Zr1'
_cod_database_code               1523941
loop_
_symmetry_equiv_pos_as_xyz
x,y,z
-y,x,z
-x,-y,z
y,-x,z
x,-y,-z
y,x,-z
-x,y,-z
-y,-x,-z
z,x,y
-x,z,y
-z,-x,y
x,-z,y
z,-x,-y
x,z,-y
-z,x,-y
-x,-z,-y
y,z,x
y,-z,-x
z,y,-x
-y,z,-x
-z,-y,-x
-y,-z,x
z,-y,x
-z,y,x
-x,-y,-z
y,-x,-z
x,y,-z
-y,x,-z
-x,y,z
-y,-x,z
x,-y,z
y,x,z
-z,-x,-y
x,-z,-y
z,x,-y
-x,z,-y
-z,x,y
-x,-z,y
z,-x,y
x,z,y
-y,-z,-x
-y,z,x
-z,-y,x
y,-z,x
z,y,x
y,z,-x
-z,y,-x
z,-y,-x
loop_
_atom_site_label
_atom_site_type_symbol
_atom_site_fract_x
_atom_site_fract_y
_atom_site_fract_z
_atom_site_occupancy
_atom_site_U_iso_or_equiv
Rh1 Rh 0 0 0 1 0.0
Zr1 Zr 0.5 0.5 0.5 1 0.0
