#------------------------------------------------------------------------------
#$Date: 2016-01-23 21:21:14 +0200 (Sat, 23 Jan 2016) $
#$Revision: 174851 $
#$URL: svn://www.crystallography.net/cod/cif/1/52/30/1523018.cif $
#------------------------------------------------------------------------------
#
# This file is available in the Crystallography Open Database (COD),
# http://www.crystallography.net/
#
# All data on this site have been placed in the public domain by the
# contributors.
#
data_1523018
loop_
_publ_author_name
'Tsukamoto, T.'
'Koyama, K.'
'Oota, A.'
'Noguchi, S.'
_publ_section_title
;
 Superconductivity and transformation of near-equiatomic M-Ru (M= V, Nb,
 Ta) alloys
;
_journal_issue                   9
_journal_name_full               Cryogenics
_journal_page_first              580
_journal_page_last               584
_journal_paper_doi               10.1016/0011-2275(88)90208-1
_journal_volume                  28
_journal_year                    1988
_chemical_formula_sum            'Ru0.4 Ta0.6'
_chemical_name_systematic        '(Ru0.4 Ta0.6)'
_space_group_IT_number           229
_symmetry_space_group_name_Hall  '-I 4 2 3'
_symmetry_space_group_name_H-M   'I m -3 m'
_cell_angle_alpha                90
_cell_angle_beta                 90
_cell_angle_gamma                90
_cell_formula_units_Z            2
_cell_length_a                   3.184
_cell_length_b                   3.184
_cell_length_c                   3.184
_cell_volume                     32.279
_citation_journal_id_ASTM        CRYOAX
_cod_data_source_file            Tsukamoto_CRYOAX_1988_1999.cif
_cod_data_source_block           Ru0.4Ta0.6
_cod_original_cell_volume        32.27893
_cod_database_code               1523018
loop_
_symmetry_equiv_pos_as_xyz
x,y,z
-y,x,z
-x,-y,z
y,-x,z
x,-y,-z
y,x,-z
-x,y,-z
-y,-x,-z
z,x,y
-x,z,y
-z,-x,y
x,-z,y
z,-x,-y
x,z,-y
-z,x,-y
-x,-z,-y
y,z,x
y,-z,-x
z,y,-x
-y,z,-x
-z,-y,-x
-y,-z,x
z,-y,x
-z,y,x
-x,-y,-z
y,-x,-z
x,y,-z
-y,x,-z
-x,y,z
-y,-x,z
x,-y,z
y,x,z
-z,-x,-y
x,-z,-y
z,x,-y
-x,z,-y
-z,x,y
-x,-z,y
z,-x,y
x,z,y
-y,-z,-x
-y,z,x
-z,-y,x
y,-z,x
z,y,x
y,z,-x
-z,y,-x
z,-y,-x
x+1/2,y+1/2,z+1/2
-y+1/2,x+1/2,z+1/2
-x+1/2,-y+1/2,z+1/2
y+1/2,-x+1/2,z+1/2
x+1/2,-y+1/2,-z+1/2
y+1/2,x+1/2,-z+1/2
-x+1/2,y+1/2,-z+1/2
-y+1/2,-x+1/2,-z+1/2
z+1/2,x+1/2,y+1/2
-x+1/2,z+1/2,y+1/2
-z+1/2,-x+1/2,y+1/2
x+1/2,-z+1/2,y+1/2
z+1/2,-x+1/2,-y+1/2
x+1/2,z+1/2,-y+1/2
-z+1/2,x+1/2,-y+1/2
-x+1/2,-z+1/2,-y+1/2
y+1/2,z+1/2,x+1/2
y+1/2,-z+1/2,-x+1/2
z+1/2,y+1/2,-x+1/2
-y+1/2,z+1/2,-x+1/2
-z+1/2,-y+1/2,-x+1/2
-y+1/2,-z+1/2,x+1/2
z+1/2,-y+1/2,x+1/2
-z+1/2,y+1/2,x+1/2
-x+1/2,-y+1/2,-z+1/2
y+1/2,-x+1/2,-z+1/2
x+1/2,y+1/2,-z+1/2
-y+1/2,x+1/2,-z+1/2
-x+1/2,y+1/2,z+1/2
-y+1/2,-x+1/2,z+1/2
x+1/2,-y+1/2,z+1/2
y+1/2,x+1/2,z+1/2
-z+1/2,-x+1/2,-y+1/2
x+1/2,-z+1/2,-y+1/2
z+1/2,x+1/2,-y+1/2
-x+1/2,z+1/2,-y+1/2
-z+1/2,x+1/2,y+1/2
-x+1/2,-z+1/2,y+1/2
z+1/2,-x+1/2,y+1/2
x+1/2,z+1/2,y+1/2
-y+1/2,-z+1/2,-x+1/2
-y+1/2,z+1/2,x+1/2
-z+1/2,-y+1/2,x+1/2
y+1/2,-z+1/2,x+1/2
z+1/2,y+1/2,x+1/2
y+1/2,z+1/2,-x+1/2
-z+1/2,y+1/2,-x+1/2
z+1/2,-y+1/2,-x+1/2
loop_
_atom_site_label
_atom_site_type_symbol
_atom_site_fract_x
_atom_site_fract_y
_atom_site_fract_z
_atom_site_occupancy
_atom_site_U_iso_or_equiv
Ta1 Ta 0 0 0 0.6 0.0
Ru1 Ru 0 0 0 0.4 0.0
