#------------------------------------------------------------------------------
#$Date: 2015-07-11 05:23:59 +0300 (Sat, 11 Jul 2015) $
#$Revision: 144439 $
#$URL: svn://www.crystallography.net/cod/cif/1/52/38/1523816.cif $
#------------------------------------------------------------------------------
#
# This file is available in the Crystallography Open Database (COD),
# http://www.crystallography.net/
#
# All data on this site have been placed in the public domain by the
# contributors.
#
data_1523816
loop_
_publ_author_name
'Herbstein, F.H.'
'Averbach, B.L.'
_publ_section_title
;
 The structure of lithium-magnesium solid solutions. I. Measurements on
 the Bragg reflections
;
_journal_name_full               'Acta Metallurgica'
_journal_page_first              407
_journal_page_last               413
_journal_volume                  4
_journal_year                    1956
_chemical_formula_sum            'Li0.184 Mg0.816'
_chemical_name_systematic        '(Li0.184 Mg0.816)'
_space_group_IT_number           194
_symmetry_space_group_name_Hall  '-P 6c 2c'
_symmetry_space_group_name_H-M   'P 63/m m c'
_cell_angle_alpha                90
_cell_angle_beta                 90
_cell_angle_gamma                120
_cell_formula_units_Z            2
_cell_length_a                   3.1918
_cell_length_b                   3.1918
_cell_length_c                   5.1319
_cell_volume                     45.277
_citation_journal_id_ASTM        AMETAR
_cod_data_source_file            Herbstein_AMETAR_1956_962.cif
_cod_data_source_block           Li0.184Mg0.816
_cod_original_cell_volume        45.27726
_cod_database_code               1523816
loop_
_symmetry_equiv_pos_as_xyz
x,y,z
x-y,x,z+1/2
-y,x-y,z
-x,-y,z+1/2
-x+y,-x,z
y,-x+y,z+1/2
-y,-x,-z+1/2
x-y,-y,-z
x,x-y,-z+1/2
y,x,-z
-x+y,y,-z+1/2
-x,-x+y,-z
-x,-y,-z
-x+y,-x,-z-1/2
y,-x+y,-z
x,y,-z-1/2
x-y,x,-z
-y,x-y,-z-1/2
y,x,z-1/2
-x+y,y,z
-x,-x+y,z-1/2
-y,-x,z
x-y,-y,z-1/2
x,x-y,z
loop_
_atom_site_label
_atom_site_type_symbol
_atom_site_fract_x
_atom_site_fract_y
_atom_site_fract_z
_atom_site_occupancy
_atom_site_U_iso_or_equiv
Mg1 Mg 0.3333 0.6667 0.25 0.816 0.0
Li1 Li 0.3333 0.6667 0.25 0.184 0.0
