#------------------------------------------------------------------------------
#$Date: 2015-07-11 05:32:38 +0300 (Sat, 11 Jul 2015) $
#$Revision: 144496 $
#$URL: svn://www.crystallography.net/cod/cif/1/52/38/1523873.cif $
#------------------------------------------------------------------------------
#
# This file is available in the Crystallography Open Database (COD),
# http://www.crystallography.net/
#
# All data on this site have been placed in the public domain by the
# contributors.
#
data_1523873
loop_
_publ_author_name
'Iandelli, A.'
'Palenzona, A.'
_publ_section_title
;
 Zinc-rich phases of the rare-earth-zinc alloys
;
_journal_name_full               'Journal of the Less-Common Metals'
_journal_page_first              333
_journal_page_last               343
_journal_volume                  12
_journal_year                    1967
_chemical_formula_sum            'Gd2 Zn17'
_chemical_name_systematic        'Gd2 Zn17'
_space_group_IT_number           166
_symmetry_space_group_name_Hall  '-R 3 2"'
_symmetry_space_group_name_H-M   'R -3 m :H'
_cell_angle_alpha                90
_cell_angle_beta                 90
_cell_angle_gamma                120
_cell_formula_units_Z            3
_cell_length_a                   8.994
_cell_length_b                   8.994
_cell_length_c                   13.169
_cell_volume                     922.548
_citation_journal_id_ASTM        JCOMAH
_cod_data_source_file            Iandelli_JCOMAH_1967_502.cif
_cod_data_source_block           Gd2Zn17
_cod_original_cell_volume        922.5485
_cod_database_code               1523873
loop_
_symmetry_equiv_pos_as_xyz
x,y,z
-y,x-y,z
-x+y,-x,z
y,x,-z
-x,-x+y,-z
x-y,-y,-z
-x,-y,-z
y,-x+y,-z
x-y,x,-z
-y,-x,z
x,x-y,z
-x+y,y,z
x+2/3,y+1/3,z+1/3
-y+2/3,x-y+1/3,z+1/3
-x+y+2/3,-x+1/3,z+1/3
y+2/3,x+1/3,-z+1/3
-x+2/3,-x+y+1/3,-z+1/3
x-y+2/3,-y+1/3,-z+1/3
-x+2/3,-y+1/3,-z+1/3
y+2/3,-x+y+1/3,-z+1/3
x-y+2/3,x+1/3,-z+1/3
-y+2/3,-x+1/3,z+1/3
x+2/3,x-y+1/3,z+1/3
-x+y+2/3,y+1/3,z+1/3
x+1/3,y+2/3,z+2/3
-y+1/3,x-y+2/3,z+2/3
-x+y+1/3,-x+2/3,z+2/3
y+1/3,x+2/3,-z+2/3
-x+1/3,-x+y+2/3,-z+2/3
x-y+1/3,-y+2/3,-z+2/3
-x+1/3,-y+2/3,-z+2/3
y+1/3,-x+y+2/3,-z+2/3
x-y+1/3,x+2/3,-z+2/3
-y+1/3,-x+2/3,z+2/3
x+1/3,x-y+2/3,z+2/3
-x+y+1/3,y+2/3,z+2/3
loop_
_atom_site_label
_atom_site_type_symbol
_atom_site_fract_x
_atom_site_fract_y
_atom_site_fract_z
_atom_site_occupancy
_atom_site_U_iso_or_equiv
Zn3 Zn 0.3 0 0 1 0.0
Zn2 Zn 0.5 0 0.5 1 0.0
Gd1 Gd 0 0 0.333 1 0.0
Zn1 Zn 0 0 0.097 1 0.0
Zn4 Zn 0.167 0.833 0.5 1 0.0
