#------------------------------------------------------------------------------
#$Date: 2015-07-10 23:14:21 +0300 (Fri, 10 Jul 2015) $
#$Revision: 143310 $
#$URL: svn://www.crystallography.net/cod/cif/1/52/30/1523001.cif $
#------------------------------------------------------------------------------
#
# This file is available in the Crystallography Open Database (COD),
# http://www.crystallography.net/
#
# All data on this site have been placed in the public domain by the
# contributors.
#
data_1523001
loop_
_publ_author_name
'Thomson, J.R.'
_publ_section_title
;
 The crystal strucure of Th Pd4
;
_journal_name_full               'Advances in X-Ray Analysis'
_journal_page_first              91
_journal_page_last               95
_journal_volume                  6
_journal_year                    1963
_chemical_formula_sum            'Pd3.2 Th0.8'
_chemical_name_systematic        'Pd3.2 Th0.8'
_space_group_IT_number           221
_symmetry_space_group_name_Hall  '-P 4 2 3'
_symmetry_space_group_name_H-M   'P m -3 m'
_cell_angle_alpha                90
_cell_angle_beta                 90
_cell_angle_gamma                90
_cell_formula_units_Z            1
_cell_length_a                   4.11
_cell_length_b                   4.11
_cell_length_c                   4.11
_cell_volume                     69.427
_citation_journal_id_ASTM        AXRAAA
_cod_data_source_file            Thomson_AXRAAA_1963_1779.cif
_cod_data_source_block           Pd3.2Th0.8
_cod_original_cell_volume        69.42654
_cod_database_code               1523001
loop_
_symmetry_equiv_pos_as_xyz
x,y,z
-y,x,z
-x,-y,z
y,-x,z
x,-y,-z
y,x,-z
-x,y,-z
-y,-x,-z
z,x,y
-x,z,y
-z,-x,y
x,-z,y
z,-x,-y
x,z,-y
-z,x,-y
-x,-z,-y
y,z,x
y,-z,-x
z,y,-x
-y,z,-x
-z,-y,-x
-y,-z,x
z,-y,x
-z,y,x
-x,-y,-z
y,-x,-z
x,y,-z
-y,x,-z
-x,y,z
-y,-x,z
x,-y,z
y,x,z
-z,-x,-y
x,-z,-y
z,x,-y
-x,z,-y
-z,x,y
-x,-z,y
z,-x,y
x,z,y
-y,-z,-x
-y,z,x
-z,-y,x
y,-z,x
z,y,x
y,z,-x
-z,y,-x
z,-y,-x
loop_
_atom_site_label
_atom_site_type_symbol
_atom_site_fract_x
_atom_site_fract_y
_atom_site_fract_z
_atom_site_occupancy
_atom_site_U_iso_or_equiv
Th1 Th 0 0 0 0.8 0.0
Pd1 Pd 0 0.5 0.5 1 0.0
Pd2 Pd 0 0 0 0.2 0.0
