#------------------------------------------------------------------------------
#$Date: 2015-07-11 05:17:52 +0300 (Sat, 11 Jul 2015) $
#$Revision: 144399 $
#$URL: svn://www.crystallography.net/cod/cif/1/52/37/1523777.cif $
#------------------------------------------------------------------------------
#
# This file is available in the Crystallography Open Database (COD),
# http://www.crystallography.net/
#
# All data on this site have been placed in the public domain by the
# contributors.
#
data_1523777
loop_
_publ_author_name
'Harris, I.R.'
'Raynor, G.V.'
_publ_section_title
;
 The constitution of ytrrium-cerium and yttrium-lanthanum alloys, with
 special reference to lattice spacings
;
_journal_name_full               'Journal of the Less-Common Metals'
_journal_page_first              1
_journal_page_last               10
_journal_volume                  7
_journal_year                    1964
_chemical_formula_sum            'La0.307 Y0.693'
_chemical_name_systematic        '(La0.307 Y0.693)'
_space_group_IT_number           194
_symmetry_space_group_name_Hall  '-P 6c 2c'
_symmetry_space_group_name_H-M   'P 63/m m c'
_cell_angle_alpha                90
_cell_angle_beta                 90
_cell_angle_gamma                120
_cell_formula_units_Z            2
_cell_length_a                   3.7021
_cell_length_b                   3.7021
_cell_length_c                   5.8437
_cell_volume                     69.361
_citation_journal_id_ASTM        JCOMAH
_cod_data_source_file            Harris_JCOMAH_1964_958.cif
_cod_data_source_block           La0.307Y0.693
_cod_original_cell_volume        69.36092
_cod_database_code               1523777
loop_
_symmetry_equiv_pos_as_xyz
x,y,z
x-y,x,z+1/2
-y,x-y,z
-x,-y,z+1/2
-x+y,-x,z
y,-x+y,z+1/2
-y,-x,-z+1/2
x-y,-y,-z
x,x-y,-z+1/2
y,x,-z
-x+y,y,-z+1/2
-x,-x+y,-z
-x,-y,-z
-x+y,-x,-z-1/2
y,-x+y,-z
x,y,-z-1/2
x-y,x,-z
-y,x-y,-z-1/2
y,x,z-1/2
-x+y,y,z
-x,-x+y,z-1/2
-y,-x,z
x-y,-y,z-1/2
x,x-y,z
loop_
_atom_site_label
_atom_site_type_symbol
_atom_site_fract_x
_atom_site_fract_y
_atom_site_fract_z
_atom_site_occupancy
_atom_site_U_iso_or_equiv
Y1 Y 0.3333 0.6667 0.25 0.693 0.0
La1 La 0.3333 0.6667 0.25 0.307 0.0
