#------------------------------------------------------------------------------
#$Date: 2015-07-11 03:39:45 +0300 (Sat, 11 Jul 2015) $
#$Revision: 144148 $
#$URL: svn://www.crystallography.net/cod/cif/1/52/35/1523531.cif $
#------------------------------------------------------------------------------
#
# This file is available in the Crystallography Open Database (COD),
# http://www.crystallography.net/
#
# All data on this site have been placed in the public domain by the
# contributors.
#
data_1523531
loop_
_publ_author_name
'Elemans, J.B.A.A.'
'Buschow, K.H.J.'
_publ_section_title
;
 The magnetic structure of Tm2 Fe17
;
_journal_name_full
'Physica Status Solidi, Sectio A: Applied Research'
_journal_page_first              125
_journal_page_last               127
_journal_volume                  24
_journal_year                    1974
_chemical_formula_sum            'Fe17 Tm2'
_chemical_name_systematic        'Fe17 Tm2'
_space_group_IT_number           194
_symmetry_space_group_name_Hall  '-P 6c 2c'
_symmetry_space_group_name_H-M   'P 63/m m c'
_cell_angle_alpha                90
_cell_angle_beta                 90
_cell_angle_gamma                120
_cell_formula_units_Z            2
_cell_length_a                   8.417
_cell_length_b                   8.417
_cell_length_c                   8.298
_cell_volume                     509.118
_citation_journal_id_ASTM        PSSABA
_cod_data_source_file            Elemans_PSSABA_1974_100.cif
_cod_data_source_block           Fe17Tm2
_cod_original_cell_volume        509.1183
_cod_database_code               1523531
loop_
_symmetry_equiv_pos_as_xyz
x,y,z
x-y,x,z+1/2
-y,x-y,z
-x,-y,z+1/2
-x+y,-x,z
y,-x+y,z+1/2
-y,-x,-z+1/2
x-y,-y,-z
x,x-y,-z+1/2
y,x,-z
-x+y,y,-z+1/2
-x,-x+y,-z
-x,-y,-z
-x+y,-x,-z-1/2
y,-x+y,-z
x,y,-z-1/2
x-y,x,-z
-y,x-y,-z-1/2
y,x,z-1/2
-x+y,y,z
-x,-x+y,z-1/2
-y,-x,z
x-y,-y,z-1/2
x,x-y,z
loop_
_atom_site_label
_atom_site_type_symbol
_atom_site_fract_x
_atom_site_fract_y
_atom_site_fract_z
_atom_site_occupancy
_atom_site_U_iso_or_equiv
Fe3 Fe 0.323 0.963 0.25 1 0.0
Fe4 Fe 0.164 0.328 0.987 1 0.0
Fe2 Fe 0.5 0 0 1 0.0
Fe1 Fe 0.3333 0.6667 0.109 1 0.0
Tm1 Tm 0 0 0.25 1 0.0
Tm2 Tm 0.3333 0.6667 0.75 1 0.0
