#------------------------------------------------------------------------------
#$Date: 2016-02-13 21:28:24 +0200 (Sat, 13 Feb 2016) $
#$Revision: 176429 $
#$URL: svn://www.crystallography.net/cod/cif/1/52/38/1523896.cif $
#------------------------------------------------------------------------------
#
# This file is available in the Crystallography Open Database (COD),
# http://www.crystallography.net/
#
# All data on this site have been placed in the public domain by the
# contributors.
#
data_1523896
loop_
_publ_author_name
'Ipser, H.'
'Mikula, A.'
'Schuster, W.'
_publ_section_title
;
 Lattice parameter and melting behavior of the ternary B2-phase in the
 Co-Ga-Ni system
;
_journal_name_full               'Monatshefte fuer Chemie (-108,1977)'
_journal_page_first              283
_journal_page_last               289
_journal_volume                  120
_journal_year                    1989
_chemical_formula_sum            'Ga Ni'
_chemical_name_systematic        'Ga Ni'
_space_group_IT_number           221
_symmetry_space_group_name_Hall  '-P 4 2 3'
_symmetry_space_group_name_H-M   'P m -3 m'
_cell_angle_alpha                90
_cell_angle_beta                 90
_cell_angle_gamma                90
_cell_formula_units_Z            1
_cell_length_a                   2.892
_cell_length_b                   2.892
_cell_length_c                   2.892
_cell_volume                     24.188
_citation_journal_id_ASTM        MOCHAP
_cod_data_source_file            Ipser_MOCHAP_1989_256.cif
_cod_data_source_block           Ga1Ni1
_cod_original_cell_volume        24.18772
_cod_original_formula_sum        'Ga1 Ni1'
_cod_database_code               1523896
loop_
_symmetry_equiv_pos_as_xyz
x,y,z
-y,x,z
-x,-y,z
y,-x,z
x,-y,-z
y,x,-z
-x,y,-z
-y,-x,-z
z,x,y
-x,z,y
-z,-x,y
x,-z,y
z,-x,-y
x,z,-y
-z,x,-y
-x,-z,-y
y,z,x
y,-z,-x
z,y,-x
-y,z,-x
-z,-y,-x
-y,-z,x
z,-y,x
-z,y,x
-x,-y,-z
y,-x,-z
x,y,-z
-y,x,-z
-x,y,z
-y,-x,z
x,-y,z
y,x,z
-z,-x,-y
x,-z,-y
z,x,-y
-x,z,-y
-z,x,y
-x,-z,y
z,-x,y
x,z,y
-y,-z,-x
-y,z,x
-z,-y,x
y,-z,x
z,y,x
y,z,-x
-z,y,-x
z,-y,-x
loop_
_atom_site_label
_atom_site_type_symbol
_atom_site_fract_x
_atom_site_fract_y
_atom_site_fract_z
_atom_site_occupancy
_atom_site_U_iso_or_equiv
Ni1 Ni 0.5 0.5 0.5 1 0.0
Ga1 Ga 0 0 0 1 0.0
