#------------------------------------------------------------------------------
#$Date: 2016-02-13 21:28:24 +0200 (Sat, 13 Feb 2016) $
#$Revision: 176429 $
#$URL: svn://www.crystallography.net/cod/cif/1/52/39/1523987.cif $
#------------------------------------------------------------------------------
#
# This file is available in the Crystallography Open Database (COD),
# http://www.crystallography.net/
#
# All data on this site have been placed in the public domain by the
# contributors.
#
data_1523987
loop_
_publ_author_name
'Aoki, Y.'
_publ_section_title
;
 Magnetic properties of the intermetallic compound with the Cu3 Au-type
 structure in the Co-Ti alloy system
;
_journal_name_full               'Journal of the Physical Society of Japan'
_journal_page_first              1451
_journal_page_last               1456
_journal_volume                  28
_journal_year                    1970
_chemical_formula_sum            'Co3 Ti'
_chemical_name_systematic        'Co3 Ti'
_space_group_IT_number           221
_symmetry_space_group_name_Hall  '-P 4 2 3'
_symmetry_space_group_name_H-M   'P m -3 m'
_cell_angle_alpha                90
_cell_angle_beta                 90
_cell_angle_gamma                90
_cell_formula_units_Z            1
_cell_length_a                   3.614
_cell_length_b                   3.614
_cell_length_c                   3.614
_cell_volume                     47.202
_citation_journal_id_ASTM        JUPSAU
_cod_data_source_file            Aoki_JUPSAU_1970_1253.cif
_cod_data_source_block           Co3Ti1
_cod_original_cell_volume        47.20244
_cod_original_formula_sum        'Co3 Ti1'
_cod_database_code               1523987
loop_
_symmetry_equiv_pos_as_xyz
x,y,z
-y,x,z
-x,-y,z
y,-x,z
x,-y,-z
y,x,-z
-x,y,-z
-y,-x,-z
z,x,y
-x,z,y
-z,-x,y
x,-z,y
z,-x,-y
x,z,-y
-z,x,-y
-x,-z,-y
y,z,x
y,-z,-x
z,y,-x
-y,z,-x
-z,-y,-x
-y,-z,x
z,-y,x
-z,y,x
-x,-y,-z
y,-x,-z
x,y,-z
-y,x,-z
-x,y,z
-y,-x,z
x,-y,z
y,x,z
-z,-x,-y
x,-z,-y
z,x,-y
-x,z,-y
-z,x,y
-x,-z,y
z,-x,y
x,z,y
-y,-z,-x
-y,z,x
-z,-y,x
y,-z,x
z,y,x
y,z,-x
-z,y,-x
z,-y,-x
loop_
_atom_site_label
_atom_site_type_symbol
_atom_site_fract_x
_atom_site_fract_y
_atom_site_fract_z
_atom_site_occupancy
_atom_site_U_iso_or_equiv
Co1 Co 0 0.5 0.5 1 0.0
Ti1 Ti 0 0 0 1 0.0
