#------------------------------------------------------------------------------
#$Date: 2016-02-13 21:28:24 +0200 (Sat, 13 Feb 2016) $
#$Revision: 176429 $
#$URL: svn://www.crystallography.net/cod/cif/1/52/33/1523313.cif $
#------------------------------------------------------------------------------
#
# This file is available in the Crystallography Open Database (COD),
# http://www.crystallography.net/
#
# All data on this site have been placed in the public domain by the
# contributors.
#
data_1523313
loop_
_publ_author_name
'Bruzzone, G.'
'Merlo, F.'
_publ_section_title
;
 The strontium-mercury system
;
_journal_name_full               'Journal of the Less-Common Metals'
_journal_page_first              153
_journal_page_last               157
_journal_volume                  35
_journal_year                    1974
_chemical_formula_sum            'Hg Sr'
_chemical_name_systematic        'Hg Sr'
_space_group_IT_number           221
_symmetry_space_group_name_Hall  '-P 4 2 3'
_symmetry_space_group_name_H-M   'P m -3 m'
_cell_angle_alpha                90
_cell_angle_beta                 90
_cell_angle_gamma                90
_cell_formula_units_Z            1
_cell_length_a                   3.955
_cell_length_b                   3.955
_cell_length_c                   3.955
_cell_volume                     61.864
_citation_journal_id_ASTM        JCOMAH
_cod_data_source_file            Bruzzone_JCOMAH_1974_662.cif
_cod_data_source_block           Hg1Sr1
_cod_original_cell_volume        61.8642
_cod_original_formula_sum        'Hg1 Sr1'
_cod_database_code               1523313
loop_
_symmetry_equiv_pos_as_xyz
x,y,z
-y,x,z
-x,-y,z
y,-x,z
x,-y,-z
y,x,-z
-x,y,-z
-y,-x,-z
z,x,y
-x,z,y
-z,-x,y
x,-z,y
z,-x,-y
x,z,-y
-z,x,-y
-x,-z,-y
y,z,x
y,-z,-x
z,y,-x
-y,z,-x
-z,-y,-x
-y,-z,x
z,-y,x
-z,y,x
-x,-y,-z
y,-x,-z
x,y,-z
-y,x,-z
-x,y,z
-y,-x,z
x,-y,z
y,x,z
-z,-x,-y
x,-z,-y
z,x,-y
-x,z,-y
-z,x,y
-x,-z,y
z,-x,y
x,z,y
-y,-z,-x
-y,z,x
-z,-y,x
y,-z,x
z,y,x
y,z,-x
-z,y,-x
z,-y,-x
loop_
_atom_site_label
_atom_site_type_symbol
_atom_site_fract_x
_atom_site_fract_y
_atom_site_fract_z
_atom_site_occupancy
_atom_site_U_iso_or_equiv
Hg1 Hg 0 0 0 1 0.0
Sr1 Sr 0.5 0.5 0.5 1 0.0
