#------------------------------------------------------------------------------
#$Date: 2016-02-13 21:28:24 +0200 (Sat, 13 Feb 2016) $
#$Revision: 176429 $
#$URL: svn://www.crystallography.net/cod/cif/1/52/32/1523215.cif $
#------------------------------------------------------------------------------
#
# This file is available in the Crystallography Open Database (COD),
# http://www.crystallography.net/
#
# All data on this site have been placed in the public domain by the
# contributors.
#
data_1523215
loop_
_publ_author_name
'Bauer, E.'
'Nowotny, H.'
'Stempfl, A.'
_publ_section_title
;
 Roentgenographische Untersuchungen im System: Platin- Quecksilber
;
_journal_name_full               'Monatshefte fuer Chemie (-108,1977)'
_journal_page_first              692
_journal_page_last               700
_journal_volume                  84
_journal_year                    1953
_chemical_formula_sum            'Hg Pt'
_chemical_name_systematic        'Hg Pt'
_space_group_IT_number           123
_symmetry_space_group_name_Hall  '-P 4 2'
_symmetry_space_group_name_H-M   'P 4/m m m'
_cell_angle_alpha                90
_cell_angle_beta                 90
_cell_angle_gamma                90
_cell_formula_units_Z            1
_cell_length_a                   2.971
_cell_length_b                   2.971
_cell_length_c                   3.825
_cell_volume                     33.763
_citation_journal_id_ASTM        MOCHAP
_cod_data_source_file            Bauer_MOCHAP_1953_654.cif
_cod_data_source_block           Hg1Pt1
_cod_original_cell_volume        33.76266
_cod_original_formula_sum        'Hg1 Pt1'
_cod_database_code               1523215
loop_
_symmetry_equiv_pos_as_xyz
x,y,z
-y,x,z
-x,-y,z
y,-x,z
x,-y,-z
y,x,-z
-x,y,-z
-y,-x,-z
-x,-y,-z
y,-x,-z
x,y,-z
-y,x,-z
-x,y,z
-y,-x,z
x,-y,z
y,x,z
loop_
_atom_site_label
_atom_site_type_symbol
_atom_site_fract_x
_atom_site_fract_y
_atom_site_fract_z
_atom_site_occupancy
_atom_site_U_iso_or_equiv
Hg1 Hg 0 0 0 1 0.0
Pt1 Pt 0.5 0.5 0.5 1 0.0
