#------------------------------------------------------------------------------
#$Date: 2016-02-13 21:28:24 +0200 (Sat, 13 Feb 2016) $
#$Revision: 176429 $
#$URL: svn://www.crystallography.net/cod/cif/1/52/32/1523211.cif $
#------------------------------------------------------------------------------
#
# This file is available in the Crystallography Open Database (COD),
# http://www.crystallography.net/
#
# All data on this site have been placed in the public domain by the
# contributors.
#
data_1523211
loop_
_publ_author_name
'Barberon, M.'
'Fruchart, R.'
'Lorthioir, G.'
_publ_section_title
;
 No 405: Modifications de structure au cours de l'insertion del'azote dans
 Mn3 Rh
;
_journal_name_full
'Bulletin de la Societe Chimique de France (Vol=Year)'
_journal_page_first              2329
_journal_page_last               2332
_journal_volume                  1969
_journal_year                    1969
_chemical_formula_sum            'Mn3 Rh'
_chemical_name_systematic        'Mn3 Rh'
_space_group_IT_number           221
_symmetry_space_group_name_Hall  '-P 4 2 3'
_symmetry_space_group_name_H-M   'P m -3 m'
_cell_angle_alpha                90
_cell_angle_beta                 90
_cell_angle_gamma                90
_cell_formula_units_Z            1
_cell_length_a                   3.8133
_cell_length_b                   3.8133
_cell_length_c                   3.8133
_cell_volume                     55.450
_citation_journal_id_ASTM        BSCFAS
_cod_data_source_file            Barberon_BSCFAS_1969_1162.cif
_cod_data_source_block           Mn3Rh1
_cod_original_cell_volume        55.45017
_cod_original_formula_sum        'Mn3 Rh1'
_cod_database_code               1523211
loop_
_symmetry_equiv_pos_as_xyz
x,y,z
-y,x,z
-x,-y,z
y,-x,z
x,-y,-z
y,x,-z
-x,y,-z
-y,-x,-z
z,x,y
-x,z,y
-z,-x,y
x,-z,y
z,-x,-y
x,z,-y
-z,x,-y
-x,-z,-y
y,z,x
y,-z,-x
z,y,-x
-y,z,-x
-z,-y,-x
-y,-z,x
z,-y,x
-z,y,x
-x,-y,-z
y,-x,-z
x,y,-z
-y,x,-z
-x,y,z
-y,-x,z
x,-y,z
y,x,z
-z,-x,-y
x,-z,-y
z,x,-y
-x,z,-y
-z,x,y
-x,-z,y
z,-x,y
x,z,y
-y,-z,-x
-y,z,x
-z,-y,x
y,-z,x
z,y,x
y,z,-x
-z,y,-x
z,-y,-x
loop_
_atom_site_label
_atom_site_type_symbol
_atom_site_fract_x
_atom_site_fract_y
_atom_site_fract_z
_atom_site_occupancy
_atom_site_U_iso_or_equiv
Mn1 Mn 0 0.5 0.5 1 0.0
Rh1 Rh 0 0 0 1 0.0
