#------------------------------------------------------------------------------
#$Date: 2016-02-13 21:28:24 +0200 (Sat, 13 Feb 2016) $
#$Revision: 176429 $
#$URL: svn://www.crystallography.net/cod/cif/1/52/34/1523446.cif $
#------------------------------------------------------------------------------
#
# This file is available in the Crystallography Open Database (COD),
# http://www.crystallography.net/
#
# All data on this site have been placed in the public domain by the
# contributors.
#
data_1523446
loop_
_publ_author_name
'Dayan, D.'
'Kimmel, G.'
'Dariel, M.P.'
_publ_section_title
;
 Diffusion couple studies in the U - Ga and Th - Ga systems
;
_journal_name_full
'13th Journees des Actinides, Proc., Elat, Israel'
_journal_page_first              1
_journal_page_last               1
_journal_volume                  1983
_journal_year                    1983
_chemical_formula_sum            'Ga2 Th'
_chemical_name_systematic        'Ga2 Th'
_space_group_IT_number           191
_symmetry_space_group_name_Hall  '-P 6 2'
_symmetry_space_group_name_H-M   'P 6/m m m'
_cell_angle_alpha                90
_cell_angle_beta                 90
_cell_angle_gamma                120
_cell_formula_units_Z            1
_cell_length_a                   4.249
_cell_length_b                   4.249
_cell_length_c                   4.253
_cell_volume                     66.497
_citation_journal_id_ASTM        JDACTB
_cod_data_source_file            Dayan_JDACTB_1983_370.cif
_cod_data_source_block           Ga2Th1
_cod_original_cell_volume        66.4966
_cod_original_formula_sum        'Ga2 Th1'
_cod_database_code               1523446
loop_
_symmetry_equiv_pos_as_xyz
x,y,z
x-y,x,z
-y,x-y,z
-x,-y,z
-x+y,-x,z
y,-x+y,z
-y,-x,-z
x-y,-y,-z
x,x-y,-z
y,x,-z
-x+y,y,-z
-x,-x+y,-z
-x,-y,-z
-x+y,-x,-z
y,-x+y,-z
x,y,-z
x-y,x,-z
-y,x-y,-z
y,x,z
-x+y,y,z
-x,-x+y,z
-y,-x,z
x-y,-y,z
x,x-y,z
loop_
_atom_site_label
_atom_site_type_symbol
_atom_site_fract_x
_atom_site_fract_y
_atom_site_fract_z
_atom_site_occupancy
_atom_site_U_iso_or_equiv
Th1 Th 0 0 0 1 0.0
Ga1 Ga 0.3333 0.6667 0.5 1 0.0
