#------------------------------------------------------------------------------
#$Date: 2015-07-11 03:29:13 +0300 (Sat, 11 Jul 2015) $
#$Revision: 144083 $
#$URL: svn://www.crystallography.net/cod/cif/1/52/34/1523467.cif $
#------------------------------------------------------------------------------
#
# This file is available in the Crystallography Open Database (COD),
# http://www.crystallography.net/
#
# All data on this site have been placed in the public domain by the
# contributors.
#
data_1523467
loop_
_publ_author_name
'Domagala, R.F.'
'Elliott, R.P.'
'Rostoker, W.'
_publ_section_title
;
 The system mercury-thorium
;
_journal_name_full
'Transactions of the Metallurgical Society of Aime'
_journal_page_first              393
_journal_page_last               395
_journal_volume                  212
_journal_year                    1958
_chemical_formula_sum            'Hg0.75 Th0.25'
_chemical_name_systematic        'Hg0.75 Th0.25'
_space_group_IT_number           194
_symmetry_space_group_name_Hall  '-P 6c 2c'
_symmetry_space_group_name_H-M   'P 63/m m c'
_cell_angle_alpha                90
_cell_angle_beta                 90
_cell_angle_gamma                120
_cell_formula_units_Z            2
_cell_length_a                   3.361
_cell_length_b                   3.361
_cell_length_c                   4.905
_cell_volume                     47.985
_citation_journal_id_ASTM        TMSAAB
_cod_data_source_file            Domagala_TMSAAB_1958_671.cif
_cod_data_source_block           Hg0.75Th0.25
_cod_original_cell_volume        47.98513
_cod_database_code               1523467
loop_
_symmetry_equiv_pos_as_xyz
x,y,z
x-y,x,z+1/2
-y,x-y,z
-x,-y,z+1/2
-x+y,-x,z
y,-x+y,z+1/2
-y,-x,-z+1/2
x-y,-y,-z
x,x-y,-z+1/2
y,x,-z
-x+y,y,-z+1/2
-x,-x+y,-z
-x,-y,-z
-x+y,-x,-z-1/2
y,-x+y,-z
x,y,-z-1/2
x-y,x,-z
-y,x-y,-z-1/2
y,x,z-1/2
-x+y,y,z
-x,-x+y,z-1/2
-y,-x,z
x-y,-y,z-1/2
x,x-y,z
loop_
_atom_site_label
_atom_site_type_symbol
_atom_site_fract_x
_atom_site_fract_y
_atom_site_fract_z
_atom_site_occupancy
_atom_site_U_iso_or_equiv
Hg1 Hg 0.3333 0.6667 0.25 0.75 0.0
Th1 Th 0.3333 0.6667 0.25 0.25 0.0
