#------------------------------------------------------------------------------
#$Date: 2016-02-13 21:28:24 +0200 (Sat, 13 Feb 2016) $
#$Revision: 176429 $
#$URL: svn://www.crystallography.net/cod/cif/1/52/30/1523026.cif $
#------------------------------------------------------------------------------
#
# This file is available in the Crystallography Open Database (COD),
# http://www.crystallography.net/
#
# All data on this site have been placed in the public domain by the
# contributors.
#
data_1523026
loop_
_publ_author_name
'Tylkina, M.A.'
'Savitskii, E.M.'
'Polyakova, V.P.'
_publ_section_title
;
 Equilibrium diagram of the Os-Re system
;
_journal_name_full               'Zhurnal Neorganicheskoi Khimii'
_journal_page_first              1469
_journal_page_last               1470
_journal_volume                  7
_journal_year                    1962
_chemical_formula_sum            'Os Re'
_chemical_name_systematic        '(Os Re)'
_space_group_IT_number           194
_symmetry_space_group_name_Hall  '-P 6c 2c'
_symmetry_space_group_name_H-M   'P 63/m m c'
_cell_angle_alpha                90
_cell_angle_beta                 90
_cell_angle_gamma                120
_cell_formula_units_Z            1
_cell_length_a                   2.73
_cell_length_b                   2.73
_cell_length_c                   4.35
_cell_volume                     28.077
_citation_journal_id_ASTM        ZNOKAQ
_cod_data_source_file            Tylkina_ZNOKAQ_1962_1653.cif
_cod_data_source_block           Os1Re1
_cod_original_cell_volume        28.07664
_cod_original_formula_sum        'Os1 Re1'
_cod_database_code               1523026
loop_
_symmetry_equiv_pos_as_xyz
x,y,z
x-y,x,z+1/2
-y,x-y,z
-x,-y,z+1/2
-x+y,-x,z
y,-x+y,z+1/2
-y,-x,-z+1/2
x-y,-y,-z
x,x-y,-z+1/2
y,x,-z
-x+y,y,-z+1/2
-x,-x+y,-z
-x,-y,-z
-x+y,-x,-z-1/2
y,-x+y,-z
x,y,-z-1/2
x-y,x,-z
-y,x-y,-z-1/2
y,x,z-1/2
-x+y,y,z
-x,-x+y,z-1/2
-y,-x,z
x-y,-y,z-1/2
x,x-y,z
loop_
_atom_site_label
_atom_site_type_symbol
_atom_site_fract_x
_atom_site_fract_y
_atom_site_fract_z
_atom_site_occupancy
_atom_site_U_iso_or_equiv
Re1 Re 0.3333 0.6667 0.25 0.5 0.0
Os1 Os 0.3333 0.6667 0.25 0.5 0.0
