#------------------------------------------------------------------------------
#$Date: 2016-02-13 21:28:24 +0200 (Sat, 13 Feb 2016) $
#$Revision: 176429 $
#$URL: svn://www.crystallography.net/cod/cif/1/52/30/1523091.cif $
#------------------------------------------------------------------------------
#
# This file is available in the Crystallography Open Database (COD),
# http://www.crystallography.net/
#
# All data on this site have been placed in the public domain by the
# contributors.
#
data_1523091
loop_
_publ_author_name
'Wood, D.H.'
'Cramer, E.M.'
'Wallace, P.L.'
'Ramsey, W.J.'
_publ_section_title
;
 Phase relations in the plutonium-lead system
;
_journal_name_full               'Journal of Nuclear Materials'
_journal_page_first              193
_journal_page_last               207
_journal_volume                  32
_journal_year                    1969
_chemical_formula_sum            'Pb Pu3'
_chemical_name_systematic        'Pb Pu3'
_space_group_IT_number           221
_symmetry_space_group_name_Hall  '-P 4 2 3'
_symmetry_space_group_name_H-M   'P m -3 m'
_cell_angle_alpha                90
_cell_angle_beta                 90
_cell_angle_gamma                90
_cell_formula_units_Z            1
_cell_length_a                   4.737
_cell_length_b                   4.737
_cell_length_c                   4.737
_cell_volume                     106.294
_citation_journal_id_ASTM        JNUMAM
_cod_data_source_file            Wood_JNUMAM_1969_1688.cif
_cod_data_source_block           Pb1Pu3
_cod_original_cell_volume        106.2943
_cod_original_formula_sum        'Pb1 Pu3'
_cod_database_code               1523091
loop_
_symmetry_equiv_pos_as_xyz
x,y,z
-y,x,z
-x,-y,z
y,-x,z
x,-y,-z
y,x,-z
-x,y,-z
-y,-x,-z
z,x,y
-x,z,y
-z,-x,y
x,-z,y
z,-x,-y
x,z,-y
-z,x,-y
-x,-z,-y
y,z,x
y,-z,-x
z,y,-x
-y,z,-x
-z,-y,-x
-y,-z,x
z,-y,x
-z,y,x
-x,-y,-z
y,-x,-z
x,y,-z
-y,x,-z
-x,y,z
-y,-x,z
x,-y,z
y,x,z
-z,-x,-y
x,-z,-y
z,x,-y
-x,z,-y
-z,x,y
-x,-z,y
z,-x,y
x,z,y
-y,-z,-x
-y,z,x
-z,-y,x
y,-z,x
z,y,x
y,z,-x
-z,y,-x
z,-y,-x
loop_
_atom_site_label
_atom_site_type_symbol
_atom_site_fract_x
_atom_site_fract_y
_atom_site_fract_z
_atom_site_occupancy
_atom_site_U_iso_or_equiv
Pb1 Pb 0 0 0 1 0.0
Pu1 Pu 0 0.5 0.5 1 0.0
