#------------------------------------------------------------------------------
#$Date: 2016-02-13 21:28:24 +0200 (Sat, 13 Feb 2016) $
#$Revision: 176429 $
#$URL: svn://www.crystallography.net/cod/cif/1/52/31/1523147.cif $
#------------------------------------------------------------------------------
#
# This file is available in the Crystallography Open Database (COD),
# http://www.crystallography.net/
#
# All data on this site have been placed in the public domain by the
# contributors.
#
data_1523147
loop_
_publ_author_name
'Zintl, E.'
'Brauer, G.'
_publ_section_title
;
 Ueber die Valenzelektronenregel und die Atomradien unedler Metalle in
 Legierungen. 10. Mitteilung ueber Metalle und Legierungen.
;
_journal_name_full
;
Zeitschrift fuer Physikalische Chemie, Abteilung B: Chemie der 
Elementarprozesse, Aufbau der Materie
;
_journal_page_first              245
_journal_page_last               271
_journal_volume                  20
_journal_year                    1933
_chemical_formula_sum            'Hg Li'
_chemical_name_systematic        'Hg Li'
_space_group_IT_number           221
_symmetry_space_group_name_Hall  '-P 4 2 3'
_symmetry_space_group_name_H-M   'P m -3 m'
_cell_angle_alpha                90
_cell_angle_beta                 90
_cell_angle_gamma                90
_cell_formula_units_Z            1
_cell_length_a                   3.294
_cell_length_b                   3.294
_cell_length_c                   3.294
_cell_volume                     35.741
_citation_journal_id_ASTM        ZPCBAL
_cod_data_source_file            Zintl_ZPCBAL_1933_628.cif
_cod_data_source_block           Hg1Li1
_cod_original_cell_volume        35.74133
_cod_original_formula_sum        'Hg1 Li1'
_cod_database_code               1523147
loop_
_symmetry_equiv_pos_as_xyz
x,y,z
-y,x,z
-x,-y,z
y,-x,z
x,-y,-z
y,x,-z
-x,y,-z
-y,-x,-z
z,x,y
-x,z,y
-z,-x,y
x,-z,y
z,-x,-y
x,z,-y
-z,x,-y
-x,-z,-y
y,z,x
y,-z,-x
z,y,-x
-y,z,-x
-z,-y,-x
-y,-z,x
z,-y,x
-z,y,x
-x,-y,-z
y,-x,-z
x,y,-z
-y,x,-z
-x,y,z
-y,-x,z
x,-y,z
y,x,z
-z,-x,-y
x,-z,-y
z,x,-y
-x,z,-y
-z,x,y
-x,-z,y
z,-x,y
x,z,y
-y,-z,-x
-y,z,x
-z,-y,x
y,-z,x
z,y,x
y,z,-x
-z,y,-x
z,-y,-x
loop_
_atom_site_label
_atom_site_type_symbol
_atom_site_fract_x
_atom_site_fract_y
_atom_site_fract_z
_atom_site_occupancy
_atom_site_U_iso_or_equiv
Li1 Li 0.5 0.5 0.5 1 0.0
Hg1 Hg 0 0 0 1 0.0
