#------------------------------------------------------------------------------
#$Date: 2015-07-11 03:24:30 +0300 (Sat, 11 Jul 2015) $
#$Revision: 144058 $
#$URL: svn://www.crystallography.net/cod/cif/1/52/34/1523442.cif $
#------------------------------------------------------------------------------
#
# This file is available in the Crystallography Open Database (COD),
# http://www.crystallography.net/
#
# All data on this site have been placed in the public domain by the
# contributors.
#
data_1523442
loop_
_publ_author_name
'Darby, J.B.jr.'
'Zegler, S.T.'
_publ_section_title
;
 Comments on superconducting phases in the Mo-Tc system
;
_journal_name_full               'Journal of Physics and Chemistry of Solids'
_journal_page_first              1825
_journal_page_last               1827
_journal_volume                  23
_journal_year                    1962
_chemical_formula_sum            'Mo0.94 Tc1.06'
_chemical_name_systematic        '(Mo0.94 Tc1.06)'
_space_group_IT_number           223
_symmetry_space_group_name_Hall  '-P 4n 2 3'
_symmetry_space_group_name_H-M   'P m -3 n'
_cell_angle_alpha                90
_cell_angle_beta                 90
_cell_angle_gamma                90
_cell_formula_units_Z            4
_cell_length_a                   4.9408
_cell_length_b                   4.9408
_cell_length_c                   4.9408
_cell_volume                     120.612
_citation_journal_id_ASTM        JPCSAW
_cod_data_source_file            Darby_JPCSAW_1962_1285.cif
_cod_data_source_block           Mo0.94Tc1.06
_cod_original_cell_volume        120.6124
_cod_database_code               1523442
loop_
_symmetry_equiv_pos_as_xyz
x,y,z
-y+1/2,x+1/2,z+1/2
-x,-y,z
y+1/2,-x+1/2,z+1/2
x,-y,-z
y+1/2,x+1/2,-z+1/2
-x,y,-z
-y+1/2,-x+1/2,-z+1/2
z,x,y
-x+1/2,z+1/2,y+1/2
-z,-x,y
x+1/2,-z+1/2,y+1/2
z,-x,-y
x+1/2,z+1/2,-y+1/2
-z,x,-y
-x+1/2,-z+1/2,-y+1/2
y,z,x
y,-z,-x
z+1/2,y+1/2,-x+1/2
-y,z,-x
-z+1/2,-y+1/2,-x+1/2
-y,-z,x
z+1/2,-y+1/2,x+1/2
-z+1/2,y+1/2,x+1/2
-x,-y,-z
y-1/2,-x-1/2,-z-1/2
x,y,-z
-y-1/2,x-1/2,-z-1/2
-x,y,z
-y-1/2,-x-1/2,z-1/2
x,-y,z
y-1/2,x-1/2,z-1/2
-z,-x,-y
x-1/2,-z-1/2,-y-1/2
z,x,-y
-x-1/2,z-1/2,-y-1/2
-z,x,y
-x-1/2,-z-1/2,y-1/2
z,-x,y
x-1/2,z-1/2,y-1/2
-y,-z,-x
-y,z,x
-z-1/2,-y-1/2,x-1/2
y,-z,x
z-1/2,y-1/2,x-1/2
y,z,-x
-z-1/2,y-1/2,-x-1/2
z-1/2,-y-1/2,-x-1/2
loop_
_atom_site_label
_atom_site_type_symbol
_atom_site_fract_x
_atom_site_fract_y
_atom_site_fract_z
_atom_site_occupancy
_atom_site_U_iso_or_equiv
Tc1 Tc 0.25 0 0.5 0.375 0.0
Mo1 Mo 0.25 0 0.5 0.625 0.0
Tc2 Tc 0 0 0 1 0.0
