#------------------------------------------------------------------------------
#$Date: 2016-02-13 21:28:24 +0200 (Sat, 13 Feb 2016) $
#$Revision: 176429 $
#$URL: svn://www.crystallography.net/cod/cif/1/52/37/1523701.cif $
#------------------------------------------------------------------------------
#
# This file is available in the Crystallography Open Database (COD),
# http://www.crystallography.net/
#
# All data on this site have been placed in the public domain by the
# contributors.
#
data_1523701
loop_
_publ_author_name
'Gilde, D.'
_publ_section_title
;
 Die Kristallstruktur des K Pb2
;
_journal_name_full
'Zeitschrift fuer Anorganische und Allgemeine Chemie'
_journal_page_first              142
_journal_page_last               143
_journal_volume                  283
_journal_year                    1956
_chemical_formula_sum            'K Pb2'
_chemical_name_systematic        'K Pb2'
_space_group_IT_number           194
_symmetry_space_group_name_Hall  '-P 6c 2c'
_symmetry_space_group_name_H-M   'P 63/m m c'
_cell_angle_alpha                90
_cell_angle_beta                 90
_cell_angle_gamma                120
_cell_formula_units_Z            4
_cell_length_a                   6.66
_cell_length_b                   6.66
_cell_length_c                   10.76
_cell_volume                     413.325
_citation_journal_id_ASTM        ZAACAB
_cod_data_source_file            Gilde_ZAACAB_1956_859.cif
_cod_data_source_block           K1Pb2
_cod_original_cell_volume        413.3247
_cod_original_formula_sum        'K1 Pb2'
_cod_database_code               1523701
loop_
_symmetry_equiv_pos_as_xyz
x,y,z
x-y,x,z+1/2
-y,x-y,z
-x,-y,z+1/2
-x+y,-x,z
y,-x+y,z+1/2
-y,-x,-z+1/2
x-y,-y,-z
x,x-y,-z+1/2
y,x,-z
-x+y,y,-z+1/2
-x,-x+y,-z
-x,-y,-z
-x+y,-x,-z-1/2
y,-x+y,-z
x,y,-z-1/2
x-y,x,-z
-y,x-y,-z-1/2
y,x,z-1/2
-x+y,y,z
-x,-x+y,z-1/2
-y,-x,z
x-y,-y,z-1/2
x,x-y,z
loop_
_atom_site_label
_atom_site_type_symbol
_atom_site_fract_x
_atom_site_fract_y
_atom_site_fract_z
_atom_site_occupancy
_atom_site_U_iso_or_equiv
Pb2 Pb 0.833 0.666 0.25 1 0.0
K1 K 0.3333 0.6667 0.063 1 0.0
Pb1 Pb 0 0 0 1 0.0
