#------------------------------------------------------------------------------
#$Date: 2016-02-13 21:28:24 +0200 (Sat, 13 Feb 2016) $
#$Revision: 176429 $
#$URL: svn://www.crystallography.net/cod/cif/1/52/71/1527133.cif $
#------------------------------------------------------------------------------
#
# This file is available in the Crystallography Open Database (COD),
# http://www.crystallography.net/
#
# All data on this site have been placed in the public domain by the
# contributors.
#
data_1527133
loop_
_publ_author_name
'Beaudry, B.J.'
'Daane, A.H.'
_publ_section_title
;
 The scandium-yttrium and scandium-zirconium system
;
_journal_name_full
'Transactions of the Metallurgical Society of Aime'
_journal_page_first              865
_journal_page_last               868
_journal_volume                  227
_journal_year                    1963
_chemical_formula_sum            'Sc Y'
_chemical_name_systematic        '(Sc Y)'
_space_group_IT_number           194
_symmetry_space_group_name_Hall  '-P 6c 2c'
_symmetry_space_group_name_H-M   'P 63/m m c'
_cell_angle_alpha                90
_cell_angle_beta                 90
_cell_angle_gamma                120
_cell_formula_units_Z            1
_cell_length_a                   3.504
_cell_length_b                   3.504
_cell_length_c                   5.544
_cell_volume                     58.950
_citation_journal_id_ASTM        TMSAAB
_cod_data_source_file            Beaudry_TMSAAB_1963_30.cif
_cod_data_source_block           Sc1Y1
_cod_original_cell_volume        58.94976
_cod_original_formula_sum        'Sc1 Y1'
_cod_database_code               1527133
loop_
_symmetry_equiv_pos_as_xyz
x,y,z
x-y,x,z+1/2
-y,x-y,z
-x,-y,z+1/2
-x+y,-x,z
y,-x+y,z+1/2
-y,-x,-z+1/2
x-y,-y,-z
x,x-y,-z+1/2
y,x,-z
-x+y,y,-z+1/2
-x,-x+y,-z
-x,-y,-z
-x+y,-x,-z-1/2
y,-x+y,-z
x,y,-z-1/2
x-y,x,-z
-y,x-y,-z-1/2
y,x,z-1/2
-x+y,y,z
-x,-x+y,z-1/2
-y,-x,z
x-y,-y,z-1/2
x,x-y,z
loop_
_atom_site_label
_atom_site_type_symbol
_atom_site_fract_x
_atom_site_fract_y
_atom_site_fract_z
_atom_site_occupancy
_atom_site_U_iso_or_equiv
Y1 Y 0.3333 0.6667 0.25 0.5 0.0
Sc1 Sc 0.3333 0.6667 0.25 0.5 0.0
