#------------------------------------------------------------------------------
#$Date: 2015-07-13 05:40:36 +0300 (Mon, 13 Jul 2015) $
#$Revision: 149480 $
#$URL: svn://www.crystallography.net/cod/cif/1/52/77/1527749.cif $
#------------------------------------------------------------------------------
#
# This file is available in the Crystallography Open Database (COD),
# http://www.crystallography.net/
#
# All data on this site have been placed in the public domain by the
# contributors.
#
data_1527749
loop_
_publ_author_name
'Mahne, S.'
'Harbrecht, B.'
_publ_section_title
;
 Al69 Ta39, a new variant of face-centred cubic giant cell structure
;
_journal_name_full               'Journal of Alloys Compd.'
_journal_page_first              271
_journal_page_last               279
_journal_volume                  203
_journal_year                    1994
_chemical_formula_sum            'Al69 Ta39'
_chemical_name_systematic        'Al69 Ta39'
_space_group_IT_number           216
_symmetry_space_group_name_Hall  'F -4 2 3'
_symmetry_space_group_name_H-M   'F -4 3 m'
_cell_angle_alpha                90
_cell_angle_beta                 90
_cell_angle_gamma                90
_cell_formula_units_Z            4
_cell_length_a                   19.153
_cell_length_b                   19.153
_cell_length_c                   19.153
_cell_volume                     7026.037
_citation_journal_id_ASTM        JALCEU
_cod_data_source_file            Mahne_JALCEU_1994_188.cif
_cod_data_source_block           Al69Ta39
_cod_database_code               1527749
loop_
_symmetry_equiv_pos_as_xyz
x,y,z
y,-x,-z
-x,-y,z
-y,x,-z
x,-y,-z
-y,-x,z
-x,y,-z
y,x,z
z,x,y
x,-z,-y
-z,-x,y
-x,z,-y
z,-x,-y
-x,-z,y
-z,x,-y
x,z,y
y,z,x
y,-z,-x
-z,-y,x
-y,z,-x
z,y,x
-y,-z,x
-z,y,-x
z,-y,-x
x,y+1/2,z+1/2
y,-x+1/2,-z+1/2
-x,-y+1/2,z+1/2
-y,x+1/2,-z+1/2
x,-y+1/2,-z+1/2
-y,-x+1/2,z+1/2
-x,y+1/2,-z+1/2
y,x+1/2,z+1/2
z,x+1/2,y+1/2
x,-z+1/2,-y+1/2
-z,-x+1/2,y+1/2
-x,z+1/2,-y+1/2
z,-x+1/2,-y+1/2
-x,-z+1/2,y+1/2
-z,x+1/2,-y+1/2
x,z+1/2,y+1/2
y,z+1/2,x+1/2
y,-z+1/2,-x+1/2
-z,-y+1/2,x+1/2
-y,z+1/2,-x+1/2
z,y+1/2,x+1/2
-y,-z+1/2,x+1/2
-z,y+1/2,-x+1/2
z,-y+1/2,-x+1/2
x+1/2,y,z+1/2
y+1/2,-x,-z+1/2
-x+1/2,-y,z+1/2
-y+1/2,x,-z+1/2
x+1/2,-y,-z+1/2
-y+1/2,-x,z+1/2
-x+1/2,y,-z+1/2
y+1/2,x,z+1/2
z+1/2,x,y+1/2
x+1/2,-z,-y+1/2
-z+1/2,-x,y+1/2
-x+1/2,z,-y+1/2
z+1/2,-x,-y+1/2
-x+1/2,-z,y+1/2
-z+1/2,x,-y+1/2
x+1/2,z,y+1/2
y+1/2,z,x+1/2
y+1/2,-z,-x+1/2
-z+1/2,-y,x+1/2
-y+1/2,z,-x+1/2
z+1/2,y,x+1/2
-y+1/2,-z,x+1/2
-z+1/2,y,-x+1/2
z+1/2,-y,-x+1/2
x+1/2,y+1/2,z
y+1/2,-x+1/2,-z
-x+1/2,-y+1/2,z
-y+1/2,x+1/2,-z
x+1/2,-y+1/2,-z
-y+1/2,-x+1/2,z
-x+1/2,y+1/2,-z
y+1/2,x+1/2,z
z+1/2,x+1/2,y
x+1/2,-z+1/2,-y
-z+1/2,-x+1/2,y
-x+1/2,z+1/2,-y
z+1/2,-x+1/2,-y
-x+1/2,-z+1/2,y
-z+1/2,x+1/2,-y
x+1/2,z+1/2,y
y+1/2,z+1/2,x
y+1/2,-z+1/2,-x
-z+1/2,-y+1/2,x
-y+1/2,z+1/2,-x
z+1/2,y+1/2,x
-y+1/2,-z+1/2,x
-z+1/2,y+1/2,-x
z+1/2,-y+1/2,-x
loop_
_atom_site_label
_atom_site_type_symbol
_atom_site_fract_x
_atom_site_fract_y
_atom_site_fract_z
_atom_site_occupancy
_atom_site_U_iso_or_equiv
Al1 Al 0.555 0.555 0.555 1 0.0
Al8 Al 0.4244 0.4244 0.2597 1 0.0
Ta2 Ta 0.25 0.25 0.25 1 0.0
Ta8 Ta 0.65603 0.65603 0.5274 1 0.0
Al9 Al 0.923 0.923 0.767 1 0.0
Ta5 Ta 0.1564 0.1564 0.1564 1 0.0
Al6 Al 0.0472 0.0472 0.1411 1 0.0
Al7 Al 0.2963 0.2963 0.3974 1 0.0
Ta4 Ta 0.9119 0.9119 0.9119 1 0.0
Ta1 Ta 0 0 0 1 0.0
Al2 Al 0.825 0.825 0.825 1 0.0
Al5 Al 0.899 0.25 0.25 0.5 0.0
Ta6 Ta 0.4066 0.4066 0.4066 1 0.0
Ta7 Ta 0.18494 0.18494 0.0064 1 0.0
Al4 Al 0.6641 0 0 1 0.0
Al3 Al 0.667 0.667 0.667 1 0.0
Ta3 Ta 0.75 0.75 0.75 1 0.0
