#------------------------------------------------------------------------------
#$Date: 2016-02-13 21:28:24 +0200 (Sat, 13 Feb 2016) $
#$Revision: 176429 $
#$URL: svn://www.crystallography.net/cod/cif/1/52/79/1527980.cif $
#------------------------------------------------------------------------------
#
# This file is available in the Crystallography Open Database (COD),
# http://www.crystallography.net/
#
# All data on this site have been placed in the public domain by the
# contributors.
#
data_1527980
loop_
_publ_author_name
'Raub, E.'
'Fritzsche, W.'
_publ_section_title
;
 Die Ruthenium-Vanadium Legierungen
;
_journal_name_full               'Zeitschrift fuer Metallkunde'
_journal_page_first              21
_journal_page_last               23
_journal_volume                  54
_journal_year                    1963
_chemical_formula_sum            'Ru V'
_chemical_name_systematic        'Ru V'
_space_group_IT_number           221
_symmetry_space_group_name_Hall  '-P 4 2 3'
_symmetry_space_group_name_H-M   'P m -3 m'
_cell_angle_alpha                90
_cell_angle_beta                 90
_cell_angle_gamma                90
_cell_formula_units_Z            1
_cell_length_a                   3
_cell_length_b                   3
_cell_length_c                   3
_cell_volume                     27.000
_citation_journal_id_ASTM        ZEMTAE
_cod_data_source_file            Raub_ZEMTAE_1963_8.cif
_cod_data_source_block           Ru1V1
_cod_original_cell_volume        27
_cod_original_formula_sum        'Ru1 V1'
_cod_database_code               1527980
loop_
_symmetry_equiv_pos_as_xyz
x,y,z
-y,x,z
-x,-y,z
y,-x,z
x,-y,-z
y,x,-z
-x,y,-z
-y,-x,-z
z,x,y
-x,z,y
-z,-x,y
x,-z,y
z,-x,-y
x,z,-y
-z,x,-y
-x,-z,-y
y,z,x
y,-z,-x
z,y,-x
-y,z,-x
-z,-y,-x
-y,-z,x
z,-y,x
-z,y,x
-x,-y,-z
y,-x,-z
x,y,-z
-y,x,-z
-x,y,z
-y,-x,z
x,-y,z
y,x,z
-z,-x,-y
x,-z,-y
z,x,-y
-x,z,-y
-z,x,y
-x,-z,y
z,-x,y
x,z,y
-y,-z,-x
-y,z,x
-z,-y,x
y,-z,x
z,y,x
y,z,-x
-z,y,-x
z,-y,-x
loop_
_atom_site_label
_atom_site_type_symbol
_atom_site_fract_x
_atom_site_fract_y
_atom_site_fract_z
_atom_site_occupancy
_atom_site_U_iso_or_equiv
Ru1 Ru 0 0 0 1 0.0
V1 V 0.5 0.5 0.5 1 0.0
