#------------------------------------------------------------------------------
#$Date: 2015-07-13 04:01:26 +0300 (Mon, 13 Jul 2015) $
#$Revision: 149086 $
#$URL: svn://www.crystallography.net/cod/cif/1/52/74/1527484.cif $
#------------------------------------------------------------------------------
#
# This file is available in the Crystallography Open Database (COD),
# http://www.crystallography.net/
#
# All data on this site have been placed in the public domain by the
# contributors.
#
data_1527484
loop_
_publ_author_name
'Harris, I.R.'
'Speight, J.D.'
_publ_section_title
;
 Lattice spacing variations in some intra-rare-earth alloy systems
;
_journal_name_full               'Journal of the Less-Common Metals'
_journal_page_first              183
_journal_page_last               197
_journal_volume                  114
_journal_year                    1985
_chemical_formula_sum            'Ho0.35 Pr0.65'
_chemical_name_systematic        '(Ho0.35 Pr0.65)'
_space_group_IT_number           194
_symmetry_space_group_name_Hall  '-P 6c 2c'
_symmetry_space_group_name_H-M   'P 63/m m c'
_cell_angle_alpha                90
_cell_angle_beta                 90
_cell_angle_gamma                120
_cell_formula_units_Z            4
_cell_length_a                   3.626
_cell_length_b                   3.626
_cell_length_c                   11.68
_cell_volume                     132.993
_citation_journal_id_ASTM        JCOMAH
_cod_data_source_file            Harris_JCOMAH_1985_559.cif
_cod_data_source_block           Ho0.35Pr0.65
_cod_original_cell_volume        132.9931
_cod_database_code               1527484
loop_
_symmetry_equiv_pos_as_xyz
x,y,z
x-y,x,z+1/2
-y,x-y,z
-x,-y,z+1/2
-x+y,-x,z
y,-x+y,z+1/2
-y,-x,-z+1/2
x-y,-y,-z
x,x-y,-z+1/2
y,x,-z
-x+y,y,-z+1/2
-x,-x+y,-z
-x,-y,-z
-x+y,-x,-z-1/2
y,-x+y,-z
x,y,-z-1/2
x-y,x,-z
-y,x-y,-z-1/2
y,x,z-1/2
-x+y,y,z
-x,-x+y,z-1/2
-y,-x,z
x-y,-y,z-1/2
x,x-y,z
loop_
_atom_site_label
_atom_site_type_symbol
_atom_site_fract_x
_atom_site_fract_y
_atom_site_fract_z
_atom_site_occupancy
_atom_site_U_iso_or_equiv
Ho1 Ho 0 0 0 0.35 0.0
Ho2 Ho 0.3333 0.6667 0.25 0.35 0.0
Pr2 Pr 0.3333 0.6667 0.25 0.65 0.0
Pr1 Pr 0 0 0 0.65 0.0
