#------------------------------------------------------------------------------
#$Date: 2015-07-13 03:29:15 +0300 (Mon, 13 Jul 2015) $
#$Revision: 148927 $
#$URL: svn://www.crystallography.net/cod/cif/1/52/73/1527378.cif $
#------------------------------------------------------------------------------
#
# This file is available in the Crystallography Open Database (COD),
# http://www.crystallography.net/
#
# All data on this site have been placed in the public domain by the
# contributors.
#
data_1527378
loop_
_publ_author_name
'Franceschi, E.'
'Palenzona, A.'
_publ_section_title
;
 The crystal structure of RE5 Tl3 and Y5 Tl3 compounds
;
_journal_name_full               'Journal of the Less-Common Metals'
_journal_page_first              93
_journal_page_last               98
_journal_volume                  18
_journal_year                    1969
_chemical_formula_sum            'Tb5 Tl3'
_chemical_name_systematic        'Tb5 Tl3'
_space_group_IT_number           193
_symmetry_space_group_name_Hall  '-P 6c 2'
_symmetry_space_group_name_H-M   'P 63/m c m'
_cell_angle_alpha                90
_cell_angle_beta                 90
_cell_angle_gamma                120
_cell_formula_units_Z            2
_cell_length_a                   8.978
_cell_length_b                   8.978
_cell_length_c                   6.596
_cell_volume                     460.437
_citation_journal_id_ASTM        JCOMAH
_cod_data_source_file            Franceschi_JCOMAH_1969_100.cif
_cod_data_source_block           Tb5Tl3
_cod_original_cell_volume        460.4373
_cod_database_code               1527378
loop_
_symmetry_equiv_pos_as_xyz
x,y,z
x-y,x,z+1/2
-y,x-y,z
-x,-y,z+1/2
-x+y,-x,z
y,-x+y,z+1/2
-y,-x,-z
x-y,-y,-z+1/2
x,x-y,-z
y,x,-z+1/2
-x+y,y,-z
-x,-x+y,-z+1/2
-x,-y,-z
-x+y,-x,-z-1/2
y,-x+y,-z
x,y,-z-1/2
x-y,x,-z
-y,x-y,-z-1/2
y,x,z
-x+y,y,z-1/2
-x,-x+y,z
-y,-x,z-1/2
x-y,-y,z
x,x-y,z-1/2
loop_
_atom_site_label
_atom_site_type_symbol
_atom_site_fract_x
_atom_site_fract_y
_atom_site_fract_z
_atom_site_occupancy
_atom_site_U_iso_or_equiv
Tb1 Tb 0.3333 0.6667 0 1 0.0
Tb2 Tb 0.24 0 0.25 1 0.0
Tl1 Tl 0.6 0 0.25 1 0.0
