#------------------------------------------------------------------------------
#$Date: 2016-02-13 21:28:24 +0200 (Sat, 13 Feb 2016) $
#$Revision: 176429 $
#$URL: svn://www.crystallography.net/cod/cif/1/52/77/1527751.cif $
#------------------------------------------------------------------------------
#
# This file is available in the Crystallography Open Database (COD),
# http://www.crystallography.net/
#
# All data on this site have been placed in the public domain by the
# contributors.
#
data_1527751
loop_
_publ_author_name
'Makarov, E.S.'
'Gudkov, L.S.'
_publ_section_title
;
 X-ray diffraction studies of thorium-zinc alloys
;
_journal_name_full               Kristallografiya
_journal_page_first              650
_journal_page_last               656
_journal_volume                  1
_journal_year                    1956
_chemical_formula_sum            'Th Zn4'
_chemical_name_systematic        'Th Zn4'
_space_group_IT_number           139
_symmetry_space_group_name_Hall  '-I 4 2'
_symmetry_space_group_name_H-M   'I 4/m m m'
_cell_angle_alpha                90
_cell_angle_beta                 90
_cell_angle_gamma                90
_cell_formula_units_Z            2
_cell_length_a                   4.26
_cell_length_b                   4.26
_cell_length_c                   10.4
_cell_volume                     188.735
_citation_journal_id_ASTM        KRISAJ
_cod_data_source_file            Makarov_KRISAJ_1956_126.cif
_cod_data_source_block           Th1Zn4
_cod_original_formula_sum        'Th1 Zn4'
_cod_database_code               1527751
loop_
_symmetry_equiv_pos_as_xyz
x,y,z
-y,x,z
-x,-y,z
y,-x,z
x,-y,-z
y,x,-z
-x,y,-z
-y,-x,-z
-x,-y,-z
y,-x,-z
x,y,-z
-y,x,-z
-x,y,z
-y,-x,z
x,-y,z
y,x,z
x+1/2,y+1/2,z+1/2
-y+1/2,x+1/2,z+1/2
-x+1/2,-y+1/2,z+1/2
y+1/2,-x+1/2,z+1/2
x+1/2,-y+1/2,-z+1/2
y+1/2,x+1/2,-z+1/2
-x+1/2,y+1/2,-z+1/2
-y+1/2,-x+1/2,-z+1/2
-x+1/2,-y+1/2,-z+1/2
y+1/2,-x+1/2,-z+1/2
x+1/2,y+1/2,-z+1/2
-y+1/2,x+1/2,-z+1/2
-x+1/2,y+1/2,z+1/2
-y+1/2,-x+1/2,z+1/2
x+1/2,-y+1/2,z+1/2
y+1/2,x+1/2,z+1/2
loop_
_atom_site_label
_atom_site_type_symbol
_atom_site_fract_x
_atom_site_fract_y
_atom_site_fract_z
_atom_site_occupancy
_atom_site_U_iso_or_equiv
Zn2 Zn 0 0 0.38 1 0.0
Zn1 Zn 0 0.5 0.25 1 0.0
Th1 Th 0 0 0 1 0.0
