#------------------------------------------------------------------------------
#$Date: 2016-02-13 21:28:24 +0200 (Sat, 13 Feb 2016) $
#$Revision: 176429 $
#$URL: svn://www.crystallography.net/cod/cif/1/52/76/1527690.cif $
#------------------------------------------------------------------------------
#
# This file is available in the Crystallography Open Database (COD),
# http://www.crystallography.net/
#
# All data on this site have been placed in the public domain by the
# contributors.
#
data_1527690
loop_
_publ_author_name
'Kripyakevich, P.I.'
'Protasov, V.S.'
'Kuz'ma, Yu.B.'
_publ_section_title
;
 Crystal structure of compounds in the scandium-zinc system
;
_journal_name_full
'Izvestiya Akademii Nauk SSSR, Neorganicheskie Materialy'
_journal_page_first              1574
_journal_page_last               1580
_journal_volume                  2
_journal_year                    1966
_chemical_formula_sum            'Sc Zn12'
_chemical_name_systematic        'Sc Zn12'
_space_group_IT_number           139
_symmetry_space_group_name_Hall  '-I 4 2'
_symmetry_space_group_name_H-M   'I 4/m m m'
_cell_angle_alpha                90
_cell_angle_beta                 90
_cell_angle_gamma                90
_cell_formula_units_Z            2
_cell_length_a                   8.814
_cell_length_b                   8.814
_cell_length_c                   5.14
_cell_volume                     399.309
_citation_journal_id_ASTM        IVNMAW
_cod_data_source_file            Kripyakevich_IVNMAW_1966_32.cif
_cod_data_source_block           Sc1Zn12
_cod_original_cell_volume        399.3091
_cod_original_formula_sum        'Sc1 Zn12'
_cod_database_code               1527690
loop_
_symmetry_equiv_pos_as_xyz
x,y,z
-y,x,z
-x,-y,z
y,-x,z
x,-y,-z
y,x,-z
-x,y,-z
-y,-x,-z
-x,-y,-z
y,-x,-z
x,y,-z
-y,x,-z
-x,y,z
-y,-x,z
x,-y,z
y,x,z
x+1/2,y+1/2,z+1/2
-y+1/2,x+1/2,z+1/2
-x+1/2,-y+1/2,z+1/2
y+1/2,-x+1/2,z+1/2
x+1/2,-y+1/2,-z+1/2
y+1/2,x+1/2,-z+1/2
-x+1/2,y+1/2,-z+1/2
-y+1/2,-x+1/2,-z+1/2
-x+1/2,-y+1/2,-z+1/2
y+1/2,-x+1/2,-z+1/2
x+1/2,y+1/2,-z+1/2
-y+1/2,x+1/2,-z+1/2
-x+1/2,y+1/2,z+1/2
-y+1/2,-x+1/2,z+1/2
x+1/2,-y+1/2,z+1/2
y+1/2,x+1/2,z+1/2
loop_
_atom_site_label
_atom_site_type_symbol
_atom_site_fract_x
_atom_site_fract_y
_atom_site_fract_z
_atom_site_occupancy
_atom_site_U_iso_or_equiv
Zn1 Zn 0.25 0.25 0.25 1 0.0
Sc1 Sc 0 0 0 1 0.0
Zn2 Zn 0.361 0 0 1 0.0
Zn3 Zn 0.277 0.5 0 1 0.0
