#------------------------------------------------------------------------------
#$Date: 2015-07-13 02:38:19 +0300 (Mon, 13 Jul 2015) $
#$Revision: 148658 $
#$URL: svn://www.crystallography.net/cod/cif/1/52/72/1527220.cif $
#------------------------------------------------------------------------------
#
# This file is available in the Crystallography Open Database (COD),
# http://www.crystallography.net/
#
# All data on this site have been placed in the public domain by the
# contributors.
#
data_1527220
loop_
_publ_author_name
'Chander, R.'
'Kumar, R.'
'Sharma, B.B.'
_publ_section_title
;
 Simple cubic structure in Tb-Te films
;
_journal_name_full
'Physica Status Solidi, Sectio A: Applied Research'
_journal_page_first              157
_journal_page_last               160
_journal_volume                  17
_journal_year                    1973
_chemical_formula_sum            'Tb0.35 Te0.65'
_chemical_name_systematic        '(Tb0.35 Te0.65)'
_space_group_IT_number           221
_symmetry_space_group_name_Hall  '-P 4 2 3'
_symmetry_space_group_name_H-M   'P m -3 m'
_cell_angle_alpha                90
_cell_angle_beta                 90
_cell_angle_gamma                90
_cell_formula_units_Z            1
_cell_length_a                   3.1465
_cell_length_b                   3.1465
_cell_length_c                   3.1465
_cell_volume                     31.152
_citation_journal_id_ASTM        PSSABA
_cod_data_source_file            Chander_PSSABA_1973_96.cif
_cod_data_source_block           Tb0.35Te0.65
_cod_original_cell_volume        31.15181
_cod_database_code               1527220
loop_
_symmetry_equiv_pos_as_xyz
x,y,z
-y,x,z
-x,-y,z
y,-x,z
x,-y,-z
y,x,-z
-x,y,-z
-y,-x,-z
z,x,y
-x,z,y
-z,-x,y
x,-z,y
z,-x,-y
x,z,-y
-z,x,-y
-x,-z,-y
y,z,x
y,-z,-x
z,y,-x
-y,z,-x
-z,-y,-x
-y,-z,x
z,-y,x
-z,y,x
-x,-y,-z
y,-x,-z
x,y,-z
-y,x,-z
-x,y,z
-y,-x,z
x,-y,z
y,x,z
-z,-x,-y
x,-z,-y
z,x,-y
-x,z,-y
-z,x,y
-x,-z,y
z,-x,y
x,z,y
-y,-z,-x
-y,z,x
-z,-y,x
y,-z,x
z,y,x
y,z,-x
-z,y,-x
z,-y,-x
loop_
_atom_site_label
_atom_site_type_symbol
_atom_site_fract_x
_atom_site_fract_y
_atom_site_fract_z
_atom_site_occupancy
_atom_site_U_iso_or_equiv
Te1 Te 0 0 0 0.65 0.0
Tb1 Tb 0 0 0 0.35 0.0
