#------------------------------------------------------------------------------
#$Date: 2016-02-13 21:28:24 +0200 (Sat, 13 Feb 2016) $
#$Revision: 176429 $
#$URL: svn://www.crystallography.net/cod/cif/1/52/71/1527123.cif $
#------------------------------------------------------------------------------
#
# This file is available in the Crystallography Open Database (COD),
# http://www.crystallography.net/
#
# All data on this site have been placed in the public domain by the
# contributors.
#
data_1527123
loop_
_publ_author_name
'Basile, F.'
'Lecocq, P.'
'Michel, A.'
_publ_section_title
;
 Etude des composes V3 Sn, Fe3 Sn, de leurs solutions solides et de la
 phase Fe3.4-x Vx Sn.6
;
_journal_name_full               'Annales de Chimie (Paris)'
_journal_page_first              297
_journal_page_last               308
_journal_volume                  1969
_journal_year                    1969
_chemical_formula_sum            'Sn V3'
_chemical_name_systematic        'Sn V3'
_space_group_IT_number           194
_symmetry_space_group_name_Hall  '-P 6c 2c'
_symmetry_space_group_name_H-M   'P 63/m m c'
_cell_angle_alpha                90
_cell_angle_beta                 90
_cell_angle_gamma                120
_cell_formula_units_Z            2
_cell_length_a                   5.694
_cell_length_b                   5.694
_cell_length_c                   4.555
_cell_volume                     127.895
_citation_journal_id_ASTM        ANCPAC
_cod_data_source_file            Basile_ANCPAC_1969_75.cif
_cod_data_source_block           Sn1V3
_cod_original_cell_volume        127.8951
_cod_original_formula_sum        'Sn1 V3'
_cod_database_code               1527123
loop_
_symmetry_equiv_pos_as_xyz
x,y,z
x-y,x,z+1/2
-y,x-y,z
-x,-y,z+1/2
-x+y,-x,z
y,-x+y,z+1/2
-y,-x,-z+1/2
x-y,-y,-z
x,x-y,-z+1/2
y,x,-z
-x+y,y,-z+1/2
-x,-x+y,-z
-x,-y,-z
-x+y,-x,-z-1/2
y,-x+y,-z
x,y,-z-1/2
x-y,x,-z
-y,x-y,-z-1/2
y,x,z-1/2
-x+y,y,z
-x,-x+y,z-1/2
-y,-x,z
x-y,-y,z-1/2
x,x-y,z
loop_
_atom_site_label
_atom_site_type_symbol
_atom_site_fract_x
_atom_site_fract_y
_atom_site_fract_z
_atom_site_occupancy
_atom_site_U_iso_or_equiv
Sn1 Sn 0.3333 0.6667 0.25 1 0.0
V1 V 0.833 0.666 0.25 1 0.0
