#------------------------------------------------------------------------------
#$Date: 2015-07-13 03:12:23 +0300 (Mon, 13 Jul 2015) $
#$Revision: 148834 $
#$URL: svn://www.crystallography.net/cod/cif/1/52/73/1527324.cif $
#------------------------------------------------------------------------------
#
# This file is available in the Crystallography Open Database (COD),
# http://www.crystallography.net/
#
# All data on this site have been placed in the public domain by the
# contributors.
#
data_1527324
loop_
_publ_author_name
'Eash, D.T.'
'Carlson, O.N.'
_publ_section_title
;
 Investigation of the thorium-yttrium system
;
_journal_name_full
'Transactions of the American Society for Metals'
_journal_page_first              1097
_journal_page_last               1113
_journal_volume                  52
_journal_year                    1960
_chemical_formula_sum            'Th0.28 Y0.72'
_chemical_name_systematic        '(Th0.28 Y0.72)'
_space_group_IT_number           194
_symmetry_space_group_name_Hall  '-P 6c 2c'
_symmetry_space_group_name_H-M   'P 63/m m c'
_cell_angle_alpha                90
_cell_angle_beta                 90
_cell_angle_gamma                120
_cell_formula_units_Z            2
_cell_length_a                   3.647
_cell_length_b                   3.647
_cell_length_c                   5.818
_cell_volume                     67.016
_citation_journal_id_ASTM        TASEA7
_cod_data_source_file            Eash_TASEA7_1960_124.cif
_cod_data_source_block           Th0.28Y0.72
_cod_original_cell_volume        67.01559
_cod_database_code               1527324
loop_
_symmetry_equiv_pos_as_xyz
x,y,z
x-y,x,z+1/2
-y,x-y,z
-x,-y,z+1/2
-x+y,-x,z
y,-x+y,z+1/2
-y,-x,-z+1/2
x-y,-y,-z
x,x-y,-z+1/2
y,x,-z
-x+y,y,-z+1/2
-x,-x+y,-z
-x,-y,-z
-x+y,-x,-z-1/2
y,-x+y,-z
x,y,-z-1/2
x-y,x,-z
-y,x-y,-z-1/2
y,x,z-1/2
-x+y,y,z
-x,-x+y,z-1/2
-y,-x,z
x-y,-y,z-1/2
x,x-y,z
loop_
_atom_site_label
_atom_site_type_symbol
_atom_site_fract_x
_atom_site_fract_y
_atom_site_fract_z
_atom_site_occupancy
_atom_site_U_iso_or_equiv
Y1 Y 0.3333 0.6667 0.25 0.72 0.0
Th1 Th 0.3333 0.6667 0.25 0.28 0.0
