#------------------------------------------------------------------------------
#$Date: 2016-02-13 21:28:24 +0200 (Sat, 13 Feb 2016) $
#$Revision: 176429 $
#$URL: svn://www.crystallography.net/cod/cif/1/52/79/1527900.cif $
#------------------------------------------------------------------------------
#
# This file is available in the Crystallography Open Database (COD),
# http://www.crystallography.net/
#
# All data on this site have been placed in the public domain by the
# contributors.
#
data_1527900
loop_
_publ_author_name
'Onoda, M.'
'Saeki, M.'
'Kawada, I.'
_publ_section_title
;
 Superstructures of Ti2 S3 (4H)
;
_journal_name_full
'Zeitschrift fuer Anorganische und Allgemeine Chemie'
_journal_page_first              62
_journal_page_last               74
_journal_volume                  457
_journal_year                    1979
_chemical_formula_sum            'S Ti0.685'
_chemical_name_systematic        'Ti0.685 S'
_space_group_IT_number           9
_symmetry_space_group_name_Hall  'C -2yc'
_symmetry_space_group_name_H-M   'C 1 c 1'
_cell_angle_alpha                90
_cell_angle_beta                 90
_cell_angle_gamma                90
_cell_formula_units_Z            48
_cell_length_a                   5.9439
_cell_length_b                   10.295
_cell_length_c                   22.858
_cell_volume                     1398.737
_citation_journal_id_ASTM        ZAACAB
_cod_data_source_file            Onoda_ZAACAB_1979_949.cif
_cod_data_source_block           S1Ti0.685
_cod_original_formula_sum        'S1 Ti0.685'
_cod_database_code               1527900
loop_
_symmetry_equiv_pos_as_xyz
x,y,z
x,-y,z+1/2
x+1/2,y+1/2,z
x+1/2,-y+1/2,z+1/2
loop_
_atom_site_label
_atom_site_type_symbol
_atom_site_fract_x
_atom_site_fract_y
_atom_site_fract_z
_atom_site_occupancy
_atom_site_U_iso_or_equiv
Ti9 Ti 0.3333 0.5 0.25 0.115 0.0
Ti3 Ti 0 0.5 0 0.115 0.0
Ti12 Ti 0 0.8333 0.375 1 0.0
S10 S 0.3333 0.1667 0.4375 1 0.0
S1 S 0.1667 0 0.0625 1 0.0
Ti1 Ti 0 0.8333 0 0.88 0.0
S12 S 0.3333 0.8333 0.4375 1 0.0
Ti11 Ti 0 0.5 0.375 1 0.0
S11 S 0.3333 0.5 0.4375 1 0.0
S3 S 0.1667 0.6667 0.0625 1 0.0
Ti2 Ti 0 0.1667 0 0.115 0.0
S9 S 0.1667 0.6667 0.3125 1 0.0
Ti6 Ti 0.3333 0.8333 0.125 1 0.0
S4 S 0 0.1667 0.1875 1 0.0
Ti8 Ti 0.3333 0.1667 0.25 0.115 0.0
S2 S 0.1667 0.3333 0.0625 1 0.0
S8 S 0.1667 0.3333 0.3125 1 0.0
Ti5 Ti 0.3333 0.5 0.125 1 0.0
S5 S 0 0.5 0.1857 1 0.0
Ti7 Ti 0.3333 0.8333 0.25 0.88 0.0
Ti4 Ti 0.3333 0.1667 0.125 1 0.0
S6 S 0 0.8333 0.1875 1 0.0
Ti10 Ti 0 0.1667 0.375 1 0.0
S7 S 0.1667 0 0.3125 1 0.0
