#------------------------------------------------------------------------------
#$Date: 2015-07-13 06:42:24 +0300 (Mon, 13 Jul 2015) $
#$Revision: 149808 $
#$URL: svn://www.crystallography.net/cod/cif/1/52/79/1527979.cif $
#------------------------------------------------------------------------------
#
# This file is available in the Crystallography Open Database (COD),
# http://www.crystallography.net/
#
# All data on this site have been placed in the public domain by the
# contributors.
#
data_1527979
loop_
_publ_author_name
'Raub, E.'
'Roeschel, E.'
_publ_section_title
;
 Die Legierungen des Rutheniums mit Titan und Zirkonium
;
_journal_name_full               'Zeitschrift fuer Metallkunde'
_journal_page_first              455
_journal_page_last               462
_journal_volume                  54
_journal_year                    1963
_chemical_formula_sum            'Ru0.02 Ti0.98'
_chemical_name_systematic        '(Ru0.02 Ti0.98)'
_space_group_IT_number           194
_symmetry_space_group_name_Hall  '-P 6c 2c'
_symmetry_space_group_name_H-M   'P 63/m m c'
_cell_angle_alpha                90
_cell_angle_beta                 90
_cell_angle_gamma                120
_cell_formula_units_Z            2
_cell_length_a                   2.951
_cell_length_b                   2.951
_cell_length_c                   4.686
_cell_volume                     35.340
_citation_journal_id_ASTM        ZEMTAE
_cod_data_source_file            Raub_ZEMTAE_1963_6.cif
_cod_data_source_block           Ru0.02Ti0.98
_cod_original_cell_volume        35.34039
_cod_database_code               1527979
loop_
_symmetry_equiv_pos_as_xyz
x,y,z
x-y,x,z+1/2
-y,x-y,z
-x,-y,z+1/2
-x+y,-x,z
y,-x+y,z+1/2
-y,-x,-z+1/2
x-y,-y,-z
x,x-y,-z+1/2
y,x,-z
-x+y,y,-z+1/2
-x,-x+y,-z
-x,-y,-z
-x+y,-x,-z-1/2
y,-x+y,-z
x,y,-z-1/2
x-y,x,-z
-y,x-y,-z-1/2
y,x,z-1/2
-x+y,y,z
-x,-x+y,z-1/2
-y,-x,z
x-y,-y,z-1/2
x,x-y,z
loop_
_atom_site_label
_atom_site_type_symbol
_atom_site_fract_x
_atom_site_fract_y
_atom_site_fract_z
_atom_site_occupancy
_atom_site_U_iso_or_equiv
Ru1 Ru 0.3333 0.6667 0.25 0.02 0.0
Ti1 Ti 0.3333 0.6667 0.25 0.98 0.0
