#------------------------------------------------------------------------------
#$Date: 2015-07-13 04:11:17 +0300 (Mon, 13 Jul 2015) $
#$Revision: 149112 $
#$URL: svn://www.crystallography.net/cod/cif/1/52/75/1527501.cif $
#------------------------------------------------------------------------------
#
# This file is available in the Crystallography Open Database (COD),
# http://www.crystallography.net/
#
# All data on this site have been placed in the public domain by the
# contributors.
#
data_1527501
loop_
_publ_author_name
'Hellawell, A.'
'Hume-Rothery, W.'
_publ_section_title
;
 The lattice spacings of dilute solid solutions of Zr, Nb, Mo, Rh, and Pd
 in ruthenium
;
_journal_name_full               'Philosophical Magazine, Serie 8(1956-)'
_journal_page_first              797
_journal_page_last               806
_journal_volume                  45
_journal_year                    1954
_chemical_formula_sum            'Ru0.99 Zr0.01'
_chemical_name_systematic        '(Ru0.99 Zr0.01)'
_space_group_IT_number           194
_symmetry_space_group_name_Hall  '-P 6c 2c'
_symmetry_space_group_name_H-M   'P 63/m m c'
_cell_angle_alpha                90
_cell_angle_beta                 90
_cell_angle_gamma                120
_cell_formula_units_Z            2
_cell_length_a                   2.705
_cell_length_b                   2.705
_cell_length_c                   4.283
_cell_volume                     27.140
_citation_journal_id_ASTM        PHMA83
_cod_data_source_file            Hellawell_PHMA83_1954_21.cif
_cod_data_source_block           Ru0.99Zr0.01
_cod_original_cell_volume        27.14021
_cod_database_code               1527501
loop_
_symmetry_equiv_pos_as_xyz
x,y,z
x-y,x,z+1/2
-y,x-y,z
-x,-y,z+1/2
-x+y,-x,z
y,-x+y,z+1/2
-y,-x,-z+1/2
x-y,-y,-z
x,x-y,-z+1/2
y,x,-z
-x+y,y,-z+1/2
-x,-x+y,-z
-x,-y,-z
-x+y,-x,-z-1/2
y,-x+y,-z
x,y,-z-1/2
x-y,x,-z
-y,x-y,-z-1/2
y,x,z-1/2
-x+y,y,z
-x,-x+y,z-1/2
-y,-x,z
x-y,-y,z-1/2
x,x-y,z
loop_
_atom_site_label
_atom_site_type_symbol
_atom_site_fract_x
_atom_site_fract_y
_atom_site_fract_z
_atom_site_occupancy
_atom_site_U_iso_or_equiv
Ru1 Ru 0.3333 0.6667 0.25 0.9934 0.0
Zr1 Zr 0.3333 0.6667 0.25 0.0066 0.0
