#------------------------------------------------------------------------------
#$Date: 2016-02-13 21:28:24 +0200 (Sat, 13 Feb 2016) $
#$Revision: 176429 $
#$URL: svn://www.crystallography.net/cod/cif/1/52/72/1527226.cif $
#------------------------------------------------------------------------------
#
# This file is available in the Crystallography Open Database (COD),
# http://www.crystallography.net/
#
# All data on this site have been placed in the public domain by the
# contributors.
#
data_1527226
loop_
_publ_author_name
'Chattopadhyay, Z.'
'Pannetier, J.'
'von Schnering, H.G.'
_publ_section_title
;
 Neutron diffraction study of the structural phase transition in Sn S and
 Sn Se
;
_journal_name_full               'Journal of Physics and Chemistry of Solids'
_journal_page_first              879
_journal_page_last               885
_journal_volume                  47
_journal_year                    1986
_chemical_formula_sum            'S Sn'
_chemical_name_systematic        'Sn S'
_space_group_IT_number           62
_symmetry_space_group_name_Hall  '-P 2c 2ab'
_symmetry_space_group_name_H-M   'P b n m'
_cell_angle_alpha                90
_cell_angle_beta                 90
_cell_angle_gamma                90
_cell_formula_units_Z            4
_cell_length_a                   4.21
_cell_length_b                   11.4
_cell_length_c                   4.091
_cell_volume                     196.343
_citation_journal_id_ASTM        JPCSAW
_cod_data_source_file            Chattopadhyay_JPCSAW_1986_26.cif
_cod_data_source_block           S1Sn1
_cod_original_cell_volume        196.3435
_cod_original_sg_symbol_Hall     '-P 2ac 2n (z,x,y)'
_cod_original_formula_sum        'S1 Sn1'
_cod_database_code               1527226
loop_
_symmetry_equiv_pos_as_xyz
x,y,z
x+1/2,-y+1/2,-z
-x+1/2,y+1/2,-z+1/2
-x,-y,z+1/2
-x,-y,-z
-x-1/2,y-1/2,z
x-1/2,-y-1/2,z-1/2
x,y,-z-1/2
loop_
_atom_site_label
_atom_site_type_symbol
_atom_site_fract_x
_atom_site_fract_y
_atom_site_fract_z
_atom_site_occupancy
_atom_site_U_iso_or_equiv
S1 S-2 0.481 0.8499 0.25 1 0.0
Sn1 Sn+2 0.0765 0.1232 0.25 1 0.0
