#------------------------------------------------------------------------------
#$Date: 2015-07-13 02:18:04 +0300 (Mon, 13 Jul 2015) $
#$Revision: 148541 $
#$URL: svn://www.crystallography.net/cod/cif/1/52/71/1527166.cif $
#------------------------------------------------------------------------------
#
# This file is available in the Crystallography Open Database (COD),
# http://www.crystallography.net/
#
# All data on this site have been placed in the public domain by the
# contributors.
#
data_1527166
loop_
_publ_author_name
'Boettcher, P.'
_publ_section_title
;
 Darstellung und Kristallstruktur der Dialkalimetalltrichalkogenide Rb2
 S3, Rb2 Se3, Cs2 S3 und Cs2 Se3
;
_journal_name_full
'Zeitschrift fuer Anorganische und Allgemeine Chemie'
_journal_page_first              13
_journal_page_last               21
_journal_volume                  461
_journal_year                    1980
_chemical_formula_sum            'Cs2 S3'
_chemical_name_systematic        'Cs2 S3'
_space_group_IT_number           36
_symmetry_space_group_name_Hall  'C 2c -2'
_symmetry_space_group_name_H-M   'C m c 21'
_cell_angle_alpha                90
_cell_angle_beta                 90
_cell_angle_gamma                90
_cell_formula_units_Z            4
_cell_length_a                   7.712
_cell_length_b                   10.939
_cell_length_c                   8.111
_cell_volume                     684.257
_citation_journal_id_ASTM        ZAACAB
_cod_data_source_file            Boettcher_ZAACAB_1980_904.cif
_cod_data_source_block           Cs2S3
_cod_original_cell_volume        684.2567
_cod_database_code               1527166
loop_
_symmetry_equiv_pos_as_xyz
x,y,z
-x,-y,z+1/2
-x,y,z
x,-y,z+1/2
x+1/2,y+1/2,z
-x+1/2,-y+1/2,z+1/2
-x+1/2,y+1/2,z
x+1/2,-y+1/2,z+1/2
loop_
_atom_site_label
_atom_site_type_symbol
_atom_site_fract_x
_atom_site_fract_y
_atom_site_fract_z
_atom_site_occupancy
_atom_site_U_iso_or_equiv
S1 S 0 0.7892 0 1 0.0
Cs1 Cs+1 0 0.1035 0.9654 1 0.0
S2 S-1 0.2197 0.8348 0.8551 1 0.0
Cs2 Cs+1 0 0.5673 0.6839 1 0.0
