#------------------------------------------------------------------------------
#$Date: 2016-02-13 21:28:24 +0200 (Sat, 13 Feb 2016) $
#$Revision: 176429 $
#$URL: svn://www.crystallography.net/cod/cif/1/52/72/1527285.cif $
#------------------------------------------------------------------------------
#
# This file is available in the Crystallography Open Database (COD),
# http://www.crystallography.net/
#
# All data on this site have been placed in the public domain by the
# contributors.
#
data_1527285
loop_
_publ_author_name
'Debray, D.'
'Meriel, P.'
'Sougi, M.'
_publ_section_title
;
 Magnetic structures of Ce Zn2 and Tb Zn2
;
_journal_name_full               'Journal of Chemical Physics'
_journal_page_first              4325
_journal_page_last               4328
_journal_volume                  56
_journal_year                    1972
_chemical_formula_sum            'Tb Zn2'
_chemical_name_systematic        'Tb Zn2'
_space_group_IT_number           74
_symmetry_space_group_name_Hall  '-I 2b 2'
_symmetry_space_group_name_H-M   'I m m a'
_cell_angle_alpha                90
_cell_angle_beta                 90
_cell_angle_gamma                90
_cell_formula_units_Z            4
_cell_length_a                   4.481
_cell_length_b                   7.122
_cell_length_c                   7.576
_cell_volume                     241.778
_citation_journal_id_ASTM        JCPSA6
_cod_data_source_file            Debray_JCPSA6_1972_103.cif
_cod_data_source_block           Tb1Zn2
_cod_original_cell_volume        241.7781
_cod_original_formula_sum        'Tb1 Zn2'
_cod_database_code               1527285
loop_
_symmetry_equiv_pos_as_xyz
x,y,z
-x,-y+1/2,z
x,-y,-z
-x,y+1/2,-z
-x,-y,-z
x,y-1/2,-z
-x,y,z
x,-y-1/2,z
x+1/2,y+1/2,z+1/2
-x+1/2,-y+1,z+1/2
x+1/2,-y+1/2,-z+1/2
-x+1/2,y+1,-z+1/2
-x+1/2,-y+1/2,-z+1/2
x+1/2,y,-z+1/2
-x+1/2,y+1/2,z+1/2
x+1/2,-y,z+1/2
loop_
_atom_site_label
_atom_site_type_symbol
_atom_site_fract_x
_atom_site_fract_y
_atom_site_fract_z
_atom_site_occupancy
_atom_site_U_iso_or_equiv
Zn1 Zn 0 0.043 0.154 1 0.0
Tb1 Tb 0 0.25 0.541 1 0.0
