#------------------------------------------------------------------------------
#$Date: 2015-07-13 03:42:59 +0300 (Mon, 13 Jul 2015) $
#$Revision: 148985 $
#$URL: svn://www.crystallography.net/cod/cif/1/52/74/1527415.cif $
#------------------------------------------------------------------------------
#
# This file is available in the Crystallography Open Database (COD),
# http://www.crystallography.net/
#
# All data on this site have been placed in the public domain by the
# contributors.
#
data_1527415
loop_
_publ_author_name
'Giorgi, A.L.'
_publ_section_title
;
 Superconductivity in the W - Tc and W2 C - Tc systems
;
_journal_name_full               'Physica B and C (Netherland) (79,1975-)'
_journal_page_first              420
_journal_page_last               422
_journal_volume                  135
_journal_year                    1985
_chemical_formula_sum            'Tc0.85 W0.15'
_chemical_name_systematic        '(Tc0.85 W0.15)'
_space_group_IT_number           194
_symmetry_space_group_name_Hall  '-P 6c 2c'
_symmetry_space_group_name_H-M   'P 63/m m c'
_cell_angle_alpha                90
_cell_angle_beta                 90
_cell_angle_gamma                120
_cell_formula_units_Z            2
_cell_length_a                   2.753
_cell_length_b                   2.753
_cell_length_c                   4.444
_cell_volume                     29.169
_citation_journal_id_ASTM        PHBCDQ
_cod_data_source_file            Giorgi_PHBCDQ_1985_113.cif
_cod_data_source_block           Tc0.85W0.15
_cod_original_cell_volume        29.1687
_cod_database_code               1527415
loop_
_symmetry_equiv_pos_as_xyz
x,y,z
x-y,x,z+1/2
-y,x-y,z
-x,-y,z+1/2
-x+y,-x,z
y,-x+y,z+1/2
-y,-x,-z+1/2
x-y,-y,-z
x,x-y,-z+1/2
y,x,-z
-x+y,y,-z+1/2
-x,-x+y,-z
-x,-y,-z
-x+y,-x,-z-1/2
y,-x+y,-z
x,y,-z-1/2
x-y,x,-z
-y,x-y,-z-1/2
y,x,z-1/2
-x+y,y,z
-x,-x+y,z-1/2
-y,-x,z
x-y,-y,z-1/2
x,x-y,z
loop_
_atom_site_label
_atom_site_type_symbol
_atom_site_fract_x
_atom_site_fract_y
_atom_site_fract_z
_atom_site_occupancy
_atom_site_U_iso_or_equiv
W1 W 0.3333 0.6667 0.25 0.15 0.0
Tc1 Tc 0.3333 0.6667 0.25 0.85 0.0
