#------------------------------------------------------------------------------
#$Date: 2015-07-13 01:51:15 +0300 (Mon, 13 Jul 2015) $
#$Revision: 148374 $
#$URL: svn://www.crystallography.net/cod/cif/1/52/70/1527072.cif $
#------------------------------------------------------------------------------
#
# This file is available in the Crystallography Open Database (COD),
# http://www.crystallography.net/
#
# All data on this site have been placed in the public domain by the
# contributors.
#
data_1527072
loop_
_publ_author_name
'Alekseevskii, N.E.'
'Balakhovskii, O.A.'
'Kirillov, I.V.'
_publ_section_title
;
 Concerning the superconductivty of technetium and some of its alloys
;
_journal_name_full               'Fizika Metallov i Metallovedenie'
_journal_page_first              50
_journal_page_last               54
_journal_volume                  40
_journal_year                    1975
_chemical_formula_sum            'Sn0.22 Tc0.78'
_chemical_name_systematic        '(Sn0.22 Tc0.78)'
_space_group_IT_number           194
_symmetry_space_group_name_Hall  '-P 6c 2c'
_symmetry_space_group_name_H-M   'P 63/m m c'
_cell_angle_alpha                90
_cell_angle_beta                 90
_cell_angle_gamma                120
_cell_formula_units_Z            2
_cell_length_a                   2.741
_cell_length_b                   2.741
_cell_length_c                   4.406
_cell_volume                     28.668
_citation_journal_id_ASTM        FMMTAK
_cod_data_source_file            Alekseevskii_FMMTAK_1975_60.cif
_cod_data_source_block           Sn0.22Tc0.78
_cod_original_cell_volume        28.66772
_cod_database_code               1527072
loop_
_symmetry_equiv_pos_as_xyz
x,y,z
x-y,x,z+1/2
-y,x-y,z
-x,-y,z+1/2
-x+y,-x,z
y,-x+y,z+1/2
-y,-x,-z+1/2
x-y,-y,-z
x,x-y,-z+1/2
y,x,-z
-x+y,y,-z+1/2
-x,-x+y,-z
-x,-y,-z
-x+y,-x,-z-1/2
y,-x+y,-z
x,y,-z-1/2
x-y,x,-z
-y,x-y,-z-1/2
y,x,z-1/2
-x+y,y,z
-x,-x+y,z-1/2
-y,-x,z
x-y,-y,z-1/2
x,x-y,z
loop_
_atom_site_label
_atom_site_type_symbol
_atom_site_fract_x
_atom_site_fract_y
_atom_site_fract_z
_atom_site_occupancy
_atom_site_U_iso_or_equiv
Sn1 Sn 0.3333 0.6667 0.25 0.22 0.0
Tc1 Tc 0.3333 0.6667 0.25 0.78 0.0
