#------------------------------------------------------------------------------
#$Date: 2015-07-13 06:41:34 +0300 (Mon, 13 Jul 2015) $
#$Revision: 149804 $
#$URL: svn://www.crystallography.net/cod/cif/1/52/79/1527975.cif $
#------------------------------------------------------------------------------
#
# This file is available in the Crystallography Open Database (COD),
# http://www.crystallography.net/
#
# All data on this site have been placed in the public domain by the
# contributors.
#
data_1527975
loop_
_publ_author_name
'Raub, E.'
'Fritzsche, W.'
_publ_section_title
;
 Die Ruthenium-Vanadium Legierungen
;
_journal_name_full               'Zeitschrift fuer Metallkunde'
_journal_page_first              21
_journal_page_last               23
_journal_volume                  54
_journal_year                    1963
_chemical_formula_sum            'Ru0.75 V0.25'
_chemical_name_systematic        '(Ru0.75 V0.25)'
_space_group_IT_number           194
_symmetry_space_group_name_Hall  '-P 6c 2c'
_symmetry_space_group_name_H-M   'P 63/m m c'
_cell_angle_alpha                90
_cell_angle_beta                 90
_cell_angle_gamma                120
_cell_formula_units_Z            2
_cell_length_a                   2.701
_cell_length_b                   2.701
_cell_length_c                   4.307
_cell_volume                     27.212
_citation_journal_id_ASTM        ZEMTAE
_cod_data_source_file            Raub_ZEMTAE_1963_13.cif
_cod_data_source_block           Ru0.75V0.25
_cod_original_cell_volume        27.21164
_cod_database_code               1527975
loop_
_symmetry_equiv_pos_as_xyz
x,y,z
x-y,x,z+1/2
-y,x-y,z
-x,-y,z+1/2
-x+y,-x,z
y,-x+y,z+1/2
-y,-x,-z+1/2
x-y,-y,-z
x,x-y,-z+1/2
y,x,-z
-x+y,y,-z+1/2
-x,-x+y,-z
-x,-y,-z
-x+y,-x,-z-1/2
y,-x+y,-z
x,y,-z-1/2
x-y,x,-z
-y,x-y,-z-1/2
y,x,z-1/2
-x+y,y,z
-x,-x+y,z-1/2
-y,-x,z
x-y,-y,z-1/2
x,x-y,z
loop_
_atom_site_label
_atom_site_type_symbol
_atom_site_fract_x
_atom_site_fract_y
_atom_site_fract_z
_atom_site_occupancy
_atom_site_U_iso_or_equiv
Ru1 Ru 0.3333 0.6667 0.25 0.75 0.0
V1 V 0.3333 0.6667 0.25 0.25 0.0
