#------------------------------------------------------------------------------
#$Date: 2016-02-13 21:28:24 +0200 (Sat, 13 Feb 2016) $
#$Revision: 176429 $
#$URL: svn://www.crystallography.net/cod/cif/1/52/79/1527932.cif $
#------------------------------------------------------------------------------
#
# This file is available in the Crystallography Open Database (COD),
# http://www.crystallography.net/
#
# All data on this site have been placed in the public domain by the
# contributors.
#
data_1527932
loop_
_publ_author_name
'Pietrokowsky, P.'
'Frink, E.P.'
_publ_section_title
;
 A constitution diagram for the alloy system titanium-tin
;
_journal_name_full
'Transactions of the American Society for Metals'
_journal_page_first              339
_journal_page_last               358
_journal_volume                  49
_journal_year                    1957
_chemical_formula_sum            'Sn Ti2'
_chemical_name_systematic        'Sn Ti2'
_space_group_IT_number           194
_symmetry_space_group_name_Hall  '-P 6c 2c'
_symmetry_space_group_name_H-M   'P 63/m m c'
_cell_angle_alpha                90
_cell_angle_beta                 90
_cell_angle_gamma                120
_cell_formula_units_Z            2
_cell_length_a                   4.653
_cell_length_b                   4.653
_cell_length_c                   5.7
_cell_volume                     106.874
_citation_journal_id_ASTM        TASEA7
_cod_data_source_file            Pietrokowsky_TASEA7_1957_66.cif
_cod_data_source_block           Sn1Ti2
_cod_original_cell_volume        106.8739
_cod_original_formula_sum        'Sn1 Ti2'
_cod_database_code               1527932
loop_
_symmetry_equiv_pos_as_xyz
x,y,z
x-y,x,z+1/2
-y,x-y,z
-x,-y,z+1/2
-x+y,-x,z
y,-x+y,z+1/2
-y,-x,-z+1/2
x-y,-y,-z
x,x-y,-z+1/2
y,x,-z
-x+y,y,-z+1/2
-x,-x+y,-z
-x,-y,-z
-x+y,-x,-z-1/2
y,-x+y,-z
x,y,-z-1/2
x-y,x,-z
-y,x-y,-z-1/2
y,x,z-1/2
-x+y,y,z
-x,-x+y,z-1/2
-y,-x,z
x-y,-y,z-1/2
x,x-y,z
loop_
_atom_site_label
_atom_site_type_symbol
_atom_site_fract_x
_atom_site_fract_y
_atom_site_fract_z
_atom_site_occupancy
_atom_site_U_iso_or_equiv
Ti2 Ti 0.3333 0.6667 0.75 1 0.0
Sn1 Sn 0.3333 0.6667 0.25 1 0.0
Ti1 Ti 0 0 0 1 0.0
