#------------------------------------------------------------------------------
#$Date: 2015-07-13 05:23:19 +0300 (Mon, 13 Jul 2015) $
#$Revision: 149404 $
#$URL: svn://www.crystallography.net/cod/cif/1/52/77/1527703.cif $
#------------------------------------------------------------------------------
#
# This file is available in the Crystallography Open Database (COD),
# http://www.crystallography.net/
#
# All data on this site have been placed in the public domain by the
# contributors.
#
data_1527703
loop_
_publ_author_name
'Kumar, R.'
'Yelon, W.B.'
_publ_section_title
;
 Crystal and magnetic structure of Er2 (Cox Fe1-x)17 compounds
;
_journal_name_full               'Journal of Applied Physics'
_journal_page_first              4641
_journal_page_last               4643
_journal_volume                  67
_journal_year                    1990
_chemical_formula_sum            'Er2 Fe17'
_chemical_name_systematic        'Er2 Fe17'
_space_group_IT_number           194
_symmetry_space_group_name_Hall  '-P 6c 2c'
_symmetry_space_group_name_H-M   'P 63/m m c'
_cell_angle_alpha                90
_cell_angle_beta                 90
_cell_angle_gamma                120
_cell_formula_units_Z            2
_cell_length_a                   8.4437
_cell_length_b                   8.4437
_cell_length_c                   8.2678
_cell_volume                     510.489
_citation_journal_id_ASTM        JAPIAU
_cod_data_source_file            Kumar_JAPIAU_1990_436.cif
_cod_data_source_block           Er2Fe17
_cod_original_cell_volume        510.4888
_cod_database_code               1527703
loop_
_symmetry_equiv_pos_as_xyz
x,y,z
x-y,x,z+1/2
-y,x-y,z
-x,-y,z+1/2
-x+y,-x,z
y,-x+y,z+1/2
-y,-x,-z+1/2
x-y,-y,-z
x,x-y,-z+1/2
y,x,-z
-x+y,y,-z+1/2
-x,-x+y,-z
-x,-y,-z
-x+y,-x,-z-1/2
y,-x+y,-z
x,y,-z-1/2
x-y,x,-z
-y,x-y,-z-1/2
y,x,z-1/2
-x+y,y,z
-x,-x+y,z-1/2
-y,-x,z
x-y,-y,z-1/2
x,x-y,z
loop_
_atom_site_label
_atom_site_type_symbol
_atom_site_fract_x
_atom_site_fract_y
_atom_site_fract_z
_atom_site_occupancy
_atom_site_U_iso_or_equiv
Fe2 Fe 0.5 0 0 1 0.0
Fe3 Fe 0.33 0.9594 0.25 1 0.0
Fe1 Fe 0.3333 0.6667 0.1059 1 0.0
Fe4 Fe 0.1651 0.3302 0.9836 1 0.0
Er2 Er 0.3333 0.6667 0.75 1 0.0
Er1 Er 0 0 0.25 1 0.0
