#------------------------------------------------------------------------------
#$Date: 2016-02-13 21:28:24 +0200 (Sat, 13 Feb 2016) $
#$Revision: 176429 $
#$URL: svn://www.crystallography.net/cod/cif/1/52/75/1527561.cif $
#------------------------------------------------------------------------------
#
# This file is available in the Crystallography Open Database (COD),
# http://www.crystallography.net/
#
# All data on this site have been placed in the public domain by the
# contributors.
#
data_1527561
loop_
_publ_author_name
'Iandelli, A.'
_publ_section_title
;
 M X2-Verbindungen der Erdalkali- und Seltenen Erdmetalle mit Gallium,
 Indium und Thallium
;
_journal_name_full
'Zeitschrift fuer Anorganische und Allgemeine Chemie'
_journal_page_first              221
_journal_page_last               232
_journal_volume                  330
_journal_year                    1964
_chemical_formula_sum            'Sr Tl2'
_chemical_name_systematic        'Sr Tl2'
_space_group_IT_number           194
_symmetry_space_group_name_Hall  '-P 6c 2c'
_symmetry_space_group_name_H-M   'P 63/m m c'
_cell_angle_alpha                90
_cell_angle_beta                 90
_cell_angle_gamma                120
_cell_formula_units_Z            2
_cell_length_a                   5.074
_cell_length_b                   5.074
_cell_length_c                   8.217
_cell_volume                     183.208
_citation_journal_id_ASTM        ZAACAB
_cod_data_source_file            Iandelli_ZAACAB_1964_84.cif
_cod_data_source_block           Sr1Tl2
_cod_original_cell_volume        183.2082
_cod_original_formula_sum        'Sr1 Tl2'
_cod_database_code               1527561
loop_
_symmetry_equiv_pos_as_xyz
x,y,z
x-y,x,z+1/2
-y,x-y,z
-x,-y,z+1/2
-x+y,-x,z
y,-x+y,z+1/2
-y,-x,-z+1/2
x-y,-y,-z
x,x-y,-z+1/2
y,x,-z
-x+y,y,-z+1/2
-x,-x+y,-z
-x,-y,-z
-x+y,-x,-z-1/2
y,-x+y,-z
x,y,-z-1/2
x-y,x,-z
-y,x-y,-z-1/2
y,x,z-1/2
-x+y,y,z
-x,-x+y,z-1/2
-y,-x,z
x-y,-y,z-1/2
x,x-y,z
loop_
_atom_site_label
_atom_site_type_symbol
_atom_site_fract_x
_atom_site_fract_y
_atom_site_fract_z
_atom_site_occupancy
_atom_site_U_iso_or_equiv
Tl1 Tl 0.3333 0.6667 0.452 1 0.0
Sr1 Sr 0 0 0.25 1 0.0
