#------------------------------------------------------------------------------
#$Date: 2016-02-13 21:28:24 +0200 (Sat, 13 Feb 2016) $
#$Revision: 176429 $
#$URL: svn://www.crystallography.net/cod/cif/1/52/73/1527318.cif $
#------------------------------------------------------------------------------
#
# This file is available in the Crystallography Open Database (COD),
# http://www.crystallography.net/
#
# All data on this site have been placed in the public domain by the
# contributors.
#
data_1527318
loop_
_publ_author_name
'Duwez, P.'
'Martens, H.'
_publ_section_title
;
 Crystal structure of Ta Cr2 and Cb Cr2
;
_journal_name_full
;
Transactions of the American Institute of Mining, Metallurgical and Petroleum 
Engineers
;
_journal_page_first              72
_journal_page_last               74
_journal_volume                  194
_journal_year                    1952
_chemical_formula_sum            'Cr2 Ta'
_chemical_name_systematic        'Cr2 Ta'
_space_group_IT_number           194
_symmetry_space_group_name_Hall  '-P 6c 2c'
_symmetry_space_group_name_H-M   'P 63/m m c'
_cell_angle_alpha                90
_cell_angle_beta                 90
_cell_angle_gamma                120
_cell_formula_units_Z            4
_cell_length_a                   4.925
_cell_length_b                   4.925
_cell_length_c                   8.062
_cell_volume                     169.350
_citation_journal_id_ASTM        TAIMAF
_cod_data_source_file            Duwez_TAIMAF_1952_388.cif
_cod_data_source_block           Cr2Ta1
_cod_original_cell_volume        169.3503
_cod_original_formula_sum        'Cr2 Ta1'
_cod_database_code               1527318
loop_
_symmetry_equiv_pos_as_xyz
x,y,z
x-y,x,z+1/2
-y,x-y,z
-x,-y,z+1/2
-x+y,-x,z
y,-x+y,z+1/2
-y,-x,-z+1/2
x-y,-y,-z
x,x-y,-z+1/2
y,x,-z
-x+y,y,-z+1/2
-x,-x+y,-z
-x,-y,-z
-x+y,-x,-z-1/2
y,-x+y,-z
x,y,-z-1/2
x-y,x,-z
-y,x-y,-z-1/2
y,x,z-1/2
-x+y,y,z
-x,-x+y,z-1/2
-y,-x,z
x-y,-y,z-1/2
x,x-y,z
loop_
_atom_site_label
_atom_site_type_symbol
_atom_site_fract_x
_atom_site_fract_y
_atom_site_fract_z
_atom_site_occupancy
_atom_site_U_iso_or_equiv
Cr2 Cr 0.833 0.666 0.25 1 0.0
Ta1 Ta 0.3333 0.6667 0.063 1 0.0
Cr1 Cr 0 0 0 1 0.0
