#------------------------------------------------------------------------------
#$Date: 2015-07-13 04:17:32 +0300 (Mon, 13 Jul 2015) $
#$Revision: 149130 $
#$URL: svn://www.crystallography.net/cod/cif/1/52/75/1527512.cif $
#------------------------------------------------------------------------------
#
# This file is available in the Crystallography Open Database (COD),
# http://www.crystallography.net/
#
# All data on this site have been placed in the public domain by the
# contributors.
#
data_1527512
loop_
_publ_author_name
'Hockings, E.F.'
'White, J.G.'
_publ_section_title
;
 The system iridium-tellurium
;
_journal_name_full               'Journal of Physical Chemistry'
_journal_page_first              1042
_journal_page_last               1045
_journal_volume                  64
_journal_year                    1960
_chemical_formula_sum            'Ir3 Te8'
_chemical_name_systematic        'Ir3 Te8'
_space_group_IT_number           205
_symmetry_space_group_name_Hall  '-P 2ac 2ab 3'
_symmetry_space_group_name_H-M   'P a -3'
_cell_angle_alpha                90
_cell_angle_beta                 90
_cell_angle_gamma                90
_cell_formula_units_Z            1
_cell_length_a                   6.414
_cell_length_b                   6.414
_cell_length_c                   6.414
_cell_volume                     263.868
_citation_journal_id_ASTM        JPCHAX
_cod_data_source_file            Hockings_JPCHAX_1960_1619.cif
_cod_data_source_block           Ir3Te8
_cod_original_cell_volume        263.8681
_cod_database_code               1527512
loop_
_symmetry_equiv_pos_as_xyz
x,y,z
-x+1/2,-y,z+1/2
x+1/2,-y+1/2,-z
-x,y+1/2,-z+1/2
z,x,y
-z+1/2,-x,y+1/2
z+1/2,-x+1/2,-y
-z,x+1/2,-y+1/2
y,z,x
y+1/2,-z+1/2,-x
-y,z+1/2,-x+1/2
-y+1/2,-z,x+1/2
-x,-y,-z
x-1/2,y,-z-1/2
-x-1/2,y-1/2,z
x,-y-1/2,z-1/2
-z,-x,-y
z-1/2,x,-y-1/2
-z-1/2,x-1/2,y
z,-x-1/2,y-1/2
-y,-z,-x
-y-1/2,z-1/2,x
y,-z-1/2,x-1/2
y-1/2,z,-x-1/2
loop_
_atom_site_label
_atom_site_type_symbol
_atom_site_fract_x
_atom_site_fract_y
_atom_site_fract_z
_atom_site_occupancy
_atom_site_U_iso_or_equiv
Te1 Te 0.368 0.368 0.368 1 0.0
Ir1 Ir 0 0 0 0.75 0.0
