#------------------------------------------------------------------------------
#$Date: 2016-02-18 13:08:31 +0200 (Thu, 18 Feb 2016) $
#$Revision: 176725 $
#$URL: svn://www.crystallography.net/cod/cif/9/01/25/9012536.cif $
#------------------------------------------------------------------------------
#
# This file is available in the Crystallography Open Database (COD),
# http://www.crystallography.net/. The original data for this entry
# were provided the American Mineralogist Crystal Structure Database,
# http://rruff.geo.arizona.edu/AMS/amcsd.php
#
# The file may be used within the scientific community so long as
# proper attribution is given to the journal article from which the
# data were obtained.
#
data_9012536
loop_
_publ_author_name
'Furuseth, S.'
'Kjekshus, A.'
'Andresen, A. F.'
_publ_section_title
;
 On the magnetic properties of CoSe2, NiS2, and NiSe2
 Locality: synthetic
;
_journal_name_full               'Acta Chemica Scandinavica'
_journal_page_first              2325
_journal_page_last               2334
_journal_paper_doi               10.3891/acta.chem.scand.23-2325
_journal_volume                  23
_journal_year                    1969
_chemical_formula_sum            'Co Se2'
_chemical_name_mineral           Trogtalite
_space_group_IT_number           205
_symmetry_space_group_name_Hall  '-P 2ac 2ab 3'
_symmetry_space_group_name_H-M   'P a -3'
_cell_angle_alpha                90
_cell_angle_beta                 90
_cell_angle_gamma                90
_cell_length_a                   5.8593
_cell_length_b                   5.8593
_cell_length_c                   5.8593
_cell_volume                     201.158
_exptl_crystal_density_diffrn    7.160
_cod_original_sg_symbol_H-M      'P a 3'
_cod_database_code               9012536
loop_
_symmetry_equiv_pos_as_xyz
x,y,z
1/2+z,x,1/2-y
z,1/2-x,1/2+y
1/2-z,1/2+x,y
-z,-x,-y
1/2+y,1/2-z,-x
1/2-y,-z,1/2+x
-y,1/2+z,1/2-x
y,z,x
x,1/2-y,1/2+z
1/2-x,1/2+y,z
1/2+x,y,1/2-z
-x,-y,-z
1/2-z,-x,1/2+y
-z,1/2+x,1/2-y
1/2+z,1/2-x,-y
z,x,y
1/2-y,1/2+z,x
1/2+y,z,1/2-x
y,1/2-z,1/2+x
-y,-z,-x
-x,1/2+y,1/2-z
1/2+x,1/2-y,-z
1/2-x,-y,1/2+z
loop_
_atom_site_label
_atom_site_fract_x
_atom_site_fract_y
_atom_site_fract_z
Co 0.00000 0.00000 0.00000
Se 0.37950 0.37950 0.37950
