#------------------------------------------------------------------------------
#$Date: 2014-07-12 11:06:43 +0300 (Sat, 12 Jul 2014) $
#$Revision: 120115 $
#$URL: svn://www.crystallography.net/cod/cif/9/01/25/9012540.cif $
#------------------------------------------------------------------------------
#
# This file is available in the Crystallography Open Database (COD),
# http://www.crystallography.net/. The original data for this entry
# were provided the American Mineralogist Crystal Structure Database,
# http://rruff.geo.arizona.edu/AMS/amcsd.php
#
# The file may be used within the scientific community so long as
# proper attribution is given to the journal article from which the
# data were obtained.
#
data_9012540
loop_
_publ_author_name
'Holseth, H.'
'Kjekshus, A.'
_publ_section_title
;
 Compounds with the marcasite type crystal structure
 IV. The crystal structure of FeSb2
 Locality: synthetic
 Note: Powder X-ray diffractometer with strip charts
;
_journal_name_full               'Acta Chemica Scandinavica'
_journal_page_first              3043
_journal_page_last               3050
_journal_volume                  23
_journal_year                    1969
_chemical_formula_sum            'Fe Sb2'
_chemical_name_mineral           Seinajokite
_space_group_IT_number           34
_symmetry_space_group_name_Hall  'P 2 -2n'
_symmetry_space_group_name_H-M   'P n n 2'
_cell_angle_alpha                90
_cell_angle_beta                 90
_cell_angle_gamma                90
_cell_length_a                   5.8328
_cell_length_b                   6.5376
_cell_length_c                   3.1973
_cell_volume                     121.921
_exptl_crystal_density_diffrn    8.154
_cod_database_code               9012540
loop_
_symmetry_equiv_pos_as_xyz
x,y,z
1/2+x,1/2-y,1/2+z
1/2-x,1/2+y,1/2+z
-x,-y,z
loop_
_atom_site_label
_atom_site_fract_x
_atom_site_fract_y
_atom_site_fract_z
_atom_site_U_iso_or_equiv
Fe 0.00000 0.00000 0.00000 0.04053
Sb 0.18750 0.35790 0.00270 0.03293
_journal_paper_doi 10.3891/acta.chem.scand.23-3043
