#------------------------------------------------------------------------------
#$Date: 2016-02-16 14:49:47 +0200 (Tue, 16 Feb 2016) $
#$Revision: 176465 $
#$URL: svn://www.crystallography.net/cod/cif/9/01/23/9012346.cif $
#------------------------------------------------------------------------------
#
# This file is available in the Crystallography Open Database (COD),
# http://www.crystallography.net/. The original data for this entry
# were provided the American Mineralogist Crystal Structure Database,
# http://rruff.geo.arizona.edu/AMS/amcsd.php
#
# The file may be used within the scientific community so long as
# proper attribution is given to the journal article from which the
# data were obtained.
#
data_9012346
loop_
_publ_author_name
'Brese, N. E.'
'von Schnering, H. G.'
_publ_section_title
;
 Bonding trends in pyrites and a reinvestigation of the structures of PdAs2,
 PdSb2, PtSb2 and PtBi2
;
_journal_name_full
'Zeitschrift fur Anorganische und Allgemeine Chemie'
_journal_page_first              393
_journal_page_last               404
_journal_paper_doi               10.1002/zaac.19946200302
_journal_volume                  620
_journal_year                    1994
_chemical_formula_structural     PdAs2
_chemical_formula_sum            'As2 Pd'
_space_group_IT_number           205
_symmetry_space_group_name_Hall  '-P 2ac 2ab 3'
_symmetry_space_group_name_H-M   'P a -3'
_cell_angle_alpha                90
_cell_angle_beta                 90
_cell_angle_gamma                90
_cell_length_a                   5.9790
_cell_length_b                   5.9790
_cell_length_c                   5.9790
_cell_volume                     213.740
_exptl_crystal_density_diffrn    7.964
_cod_original_sg_symbol_H-M      'P a 3'
_cod_original_formula_sum        'Pd As2'
_cod_database_code               9012346
loop_
_symmetry_equiv_pos_as_xyz
x,y,z
1/2+z,x,1/2-y
z,1/2-x,1/2+y
1/2-z,1/2+x,y
-z,-x,-y
1/2+y,1/2-z,-x
1/2-y,-z,1/2+x
-y,1/2+z,1/2-x
y,z,x
x,1/2-y,1/2+z
1/2-x,1/2+y,z
1/2+x,y,1/2-z
-x,-y,-z
1/2-z,-x,1/2+y
-z,1/2+x,1/2-y
1/2+z,1/2-x,-y
z,x,y
1/2-y,1/2+z,x
1/2+y,z,1/2-x
y,1/2-z,1/2+x
-y,-z,-x
-x,1/2+y,1/2-z
1/2+x,1/2-y,-z
1/2-x,-y,1/2+z
loop_
_atom_site_aniso_label
_atom_site_aniso_U_11
_atom_site_aniso_U_22
_atom_site_aniso_U_33
_atom_site_aniso_U_12
_atom_site_aniso_U_13
_atom_site_aniso_U_23
Pd 0.00450 0.00450 0.00450 0.00000 0.00000 0.00000
As 0.00540 0.00540 0.00540 0.00020 0.00020 0.00020
loop_
_atom_site_label
_atom_site_fract_x
_atom_site_fract_y
_atom_site_fract_z
Pd 0.00000 0.00000 0.00000
As 0.38317 0.38317 0.38317
