#------------------------------------------------------------------------------
#$Date: 2016-02-16 14:49:47 +0200 (Tue, 16 Feb 2016) $
#$Revision: 176465 $
#$URL: svn://www.crystallography.net/cod/cif/9/01/20/9012077.cif $
#------------------------------------------------------------------------------
#
# This file is available in the Crystallography Open Database (COD),
# http://www.crystallography.net/. The original data for this entry
# were provided the American Mineralogist Crystal Structure Database,
# http://rruff.geo.arizona.edu/AMS/amcsd.php
#
# The file may be used within the scientific community so long as
# proper attribution is given to the journal article from which the
# data were obtained.
#
data_9012077
loop_
_publ_author_name
'Darmon, R.'
'Wintenberger, M.'
_publ_section_title
;
 Structure cristalline de CoAs2
 Note: coordinates transformed from B2_1/d to P2_1/c
;
_journal_name_full
'Bulletin de la Societe Francaise de Mineralogie et de Cristallographie'
_journal_page_first              213
_journal_page_last               215
_journal_volume                  89
_journal_year                    1966
_chemical_formula_sum            'As2 Co'
_chemical_name_mineral           Clinosafflorite
_space_group_IT_number           14
_symmetry_space_group_name_Hall  '-P 2ybc'
_symmetry_space_group_name_H-M   'P 1 21/c 1'
_cell_angle_alpha                90
_cell_angle_beta                 116.685
_cell_angle_gamma                90
_cell_length_a                   5.972
_cell_length_b                   5.860
_cell_length_c                   5.917
_cell_volume                     185.016
_exptl_crystal_density_diffrn    7.495
_cod_original_formula_sum        'Co As2'
_cod_database_code               9012077
loop_
_symmetry_equiv_pos_as_xyz
x,y,z
x,1/2-y,1/2+z
-x,1/2+y,1/2-z
-x,-y,-z
loop_
_atom_site_label
_atom_site_fract_x
_atom_site_fract_y
_atom_site_fract_z
Co 0.27300 0.01100 -0.71700
As1 0.34400 -0.63100 -0.82400
As2 0.15500 -0.36500 -0.63700
