#------------------------------------------------------------------------------
#$Date: 2016-02-18 13:08:31 +0200 (Thu, 18 Feb 2016) $
#$Revision: 176725 $
#$URL: svn://www.crystallography.net/cod/cif/9/01/23/9012309.cif $
#------------------------------------------------------------------------------
#
# This file is available in the Crystallography Open Database (COD),
# http://www.crystallography.net/. The original data for this entry
# were provided the American Mineralogist Crystal Structure Database,
# http://rruff.geo.arizona.edu/AMS/amcsd.php
#
# The file may be used within the scientific community so long as
# proper attribution is given to the journal article from which the
# data were obtained.
#
data_9012309
loop_
_publ_author_name
'Hoard, J. L.'
'Hughes, R. E.'
'Sands, D. E.'
_publ_section_title
;
 The structure of tetragonal boron
 Locality: synthetic
 Sample: needle III
;
_journal_name_full               'Journal of the American Chemical Society'
_journal_page_first              4507
_journal_page_last               4515
_journal_paper_doi               10.1021/ja01550a019
_journal_volume                  80
_journal_year                    1958
_chemical_formula_sum            B
_chemical_name_common            Boron
_space_group_IT_number           134
_symmetry_space_group_name_Hall  'P 4n 2 -1n'
_symmetry_space_group_name_H-M   'P 42/n n m :1'
_cell_angle_alpha                90
_cell_angle_beta                 90
_cell_angle_gamma                90
_cell_length_a                   8.740
_cell_length_b                   8.740
_cell_length_c                   5.068
_cell_volume                     387.132
_exptl_crystal_density_diffrn    2.319
_cod_original_sg_symbol_H-M      'P 42/n n m'
_cod_database_code               9012309
loop_
_symmetry_equiv_pos_as_xyz
x,y,z
-y,-x,z
1/2+y,1/2+x,1/2-z
y,-x,-z
1/2-y,1/2+x,1/2+z
1/2+x,1/2-y,1/2+z
-x,y,-z
1/2+x,1/2+y,1/2-z
-x,-y,z
y,x,z
1/2-y,1/2-x,1/2-z
-y,x,-z
1/2+y,1/2-x,1/2+z
1/2-x,1/2+y,1/2+z
x,-y,-z
1/2-x,1/2-y,1/2-z
loop_
_atom_site_label
_atom_site_fract_x
_atom_site_fract_y
_atom_site_fract_z
_atom_site_U_iso_or_equiv
B1 0.32530 0.08830 0.39850 0.00963
B2 0.22720 0.08050 0.08650 0.00925
B3 0.11950 0.11950 0.37800 0.01001
B4 0.24250 0.24250 0.58150 0.00849
B5 0.00000 0.00000 0.50000 0.00659
