data_3000038
loop_
_publ_author_name
'Pawel Zajdel'
'Iza Kruk'
_publ_section_title
;

 Single crystal growth and structural characterization of iron telluride

 doped with chromium and zinc'

;
_journal_name_full
'To be published in Journal of Crystal Growth'
_diffrn_ambient_temperature      293(2)
_cell_measurement_temperature    293(2)
_chemical_name_systematic
;

\b - iron telluride 

;
_chemical_name_common            'iron telluride'
_chemical_formula_sum            'Fe2.14 Te2'
_symmetry_space_group_name_hall  '-P 4a 2a'
_symmetry_space_group_name_h-m   'P 4/n m m :2'
_cell_length_a                   3.82740(10)
_cell_length_b                   3.82740(10)
_cell_length_c                   6.2918(5)
_cell_angle_alpha                90
_cell_angle_beta                 90
_cell_angle_gamma                90
_cell_volume                     92.169(8)
_diffrn_radiation_wavelength     0.7107
_diffrn_radiation_type           'Mo K\a'
_refine_ls_r_factor_all          0.0253
_refine_ls_r_factor_gt           0.0231
_refine_ls_wr_factor_gt          0.0599
_refine_ls_wr_factor_ref         0.0607
_refine_ls_goodness_of_fit_ref   1.202
_cod_hold_until_date             2014-05-18
loop_
_atom_site_label
_atom_site_fract_x
_atom_site_fract_y
_atom_site_fract_z
? ? ? ?
