data_3000036
loop_
_publ_author_name
'Pawel Zajdel'
'Iza Kruk'
_publ_section_title
;

 Single crystal growth and structural characterization of iron telluride

 doped with chromium and zinc'

;
_journal_name_full
'To be published in Journal of Crystal Growth'
_diffrn_ambient_temperature      288(2)
_cell_measurement_temperature    288(2)
_chemical_name_systematic
;

 iron telluride - beta

;
_chemical_name_common            '\b-iron telluride'
_chemical_formula_sum            'Fe2.18 Te2'
_symmetry_space_group_name_hall  '-P 4a 2a'
_symmetry_space_group_name_h-m   'P 4/n m m :2'
_cell_length_a                   3.82750(10)
_cell_length_b                   3.82750(10)
_cell_length_c                   6.2790(3)
_cell_angle_alpha                90
_cell_angle_beta                 90
_cell_angle_gamma                90
_cell_volume                     91.986(6)
_diffrn_radiation_wavelength     0.7107
_diffrn_radiation_type           'Mo K\a'
_refine_ls_r_factor_all          0.0262
_refine_ls_r_factor_gt           0.0259
_refine_ls_wr_factor_gt          0.0614
_refine_ls_wr_factor_ref         0.0616
_refine_ls_goodness_of_fit_ref   1.174
_cod_hold_until_date             2014-05-18
loop_
_atom_site_label
_atom_site_fract_x
_atom_site_fract_y
_atom_site_fract_z
? ? ? ?
