#------------------------------------------------------------------------------
#$Date: 2016-01-01 13:41:31 +0200 (Fri, 01 Jan 2016) $
#$Revision: 172067 $
#$URL: svn://www.crystallography.net/cod/cif/1/54/08/1540892.cif $
#------------------------------------------------------------------------------
#
# This file is available in the Crystallography Open Database (COD),
# http://www.crystallography.net/
#
# All data on this site have been placed in the public domain by the
# contributors.
#
data_1540892
loop_
_publ_author_name
'Schachner, H.'
'Cerwenka, E.'
'Nowotny, H.'
_publ_section_title
;
 Neue Silizide vom M5Si3-Typ mit D 88-Struktur
;
_journal_name_full
;
Monatshefte fuer Chemie und verwandte Teile anderer Wissenschaften (109,1978-)
;
_journal_page_first              245
_journal_page_last               245
_journal_volume                  85
_journal_year                    1954
_chemical_formula_sum            'Si3 V5'
_chemical_name_systematic        'V5 Si3'
_space_group_IT_number           193
_symmetry_space_group_name_Hall  '-P 6c 2'
_symmetry_space_group_name_H-M   'P 63/m c m'
_cell_angle_alpha                90
_cell_angle_beta                 90
_cell_angle_gamma                120
_cell_formula_units_Z            2
_cell_length_a                   7.135
_cell_length_b                   7.135
_cell_length_c                   4.842
_cell_volume                     213.473
_citation_journal_id_ASTM        MOCMB7
_cod_data_source_file            Schachner_MOCMB7_1954_26.cif
_cod_data_source_block           Si3V5
_cod_original_cell_volume        213.4732
_cod_database_code               1540892
loop_
_symmetry_equiv_pos_as_xyz
x,y,z
x-y,x,z+1/2
-y,x-y,z
-x,-y,z+1/2
-x+y,-x,z
y,-x+y,z+1/2
-y,-x,-z
x-y,-y,-z+1/2
x,x-y,-z
y,x,-z+1/2
-x+y,y,-z
-x,-x+y,-z+1/2
-x,-y,-z
-x+y,-x,-z-1/2
y,-x+y,-z
x,y,-z-1/2
x-y,x,-z
-y,x-y,-z-1/2
y,x,z
-x+y,y,z-1/2
-x,-x+y,z
-y,-x,z-1/2
x-y,-y,z
x,x-y,z-1/2
loop_
_atom_site_label
_atom_site_type_symbol
_atom_site_fract_x
_atom_site_fract_y
_atom_site_fract_z
_atom_site_occupancy
_atom_site_U_iso_or_equiv
Si1 Si 0.61 0 0.25 1 0.0
V2 V 0.25 0 0.25 1 0.0
V1 V 0.3333 0.6667 0 1 0.0
