#------------------------------------------------------------------------------
#$Date: 2016-02-13 21:28:24 +0200 (Sat, 13 Feb 2016) $
#$Revision: 176429 $
#$URL: svn://www.crystallography.net/cod/cif/1/54/03/1540304.cif $
#------------------------------------------------------------------------------
#
# This file is available in the Crystallography Open Database (COD),
# http://www.crystallography.net/
#
# All data on this site have been placed in the public domain by the
# contributors.
#
data_1540304
loop_
_publ_author_name
'Lipson, H.'
'Stokes, A.R.'
_publ_section_title
;
 Structures of thallium
;
_journal_name_full               'Nature (London)'
_journal_page_first              437
_journal_page_last               437
_journal_volume                  148
_journal_year                    1941
_chemical_formula_sum            Tl
_chemical_name_systematic        Tl
_space_group_IT_number           194
_symmetry_space_group_name_Hall  '-P 6c 2c'
_symmetry_space_group_name_H-M   'P 63/m m c'
_cell_angle_alpha                90
_cell_angle_beta                 90
_cell_angle_gamma                120
_cell_formula_units_Z            2
_cell_length_a                   3.4496
_cell_length_b                   3.4496
_cell_length_c                   5.5137
_cell_volume                     56.821
_citation_journal_id_ASTM        NATUAS
_cod_data_source_file            Lipson_NATUAS_1941_186.cif
_cod_data_source_block           Tl1
_cod_original_cell_volume        56.82131
_cod_original_formula_sum        Tl1
_cod_database_code               1540304
loop_
_symmetry_equiv_pos_as_xyz
x,y,z
x-y,x,z+1/2
-y,x-y,z
-x,-y,z+1/2
-x+y,-x,z
y,-x+y,z+1/2
-y,-x,-z+1/2
x-y,-y,-z
x,x-y,-z+1/2
y,x,-z
-x+y,y,-z+1/2
-x,-x+y,-z
-x,-y,-z
-x+y,-x,-z-1/2
y,-x+y,-z
x,y,-z-1/2
x-y,x,-z
-y,x-y,-z-1/2
y,x,z-1/2
-x+y,y,z
-x,-x+y,z-1/2
-y,-x,z
x-y,-y,z-1/2
x,x-y,z
loop_
_atom_site_label
_atom_site_type_symbol
_atom_site_fract_x
_atom_site_fract_y
_atom_site_fract_z
_atom_site_occupancy
_atom_site_U_iso_or_equiv
Tl1 Tl 0.3333 0.6667 0.25 1 0.0
