#------------------------------------------------------------------------------
#$Date: 2015-10-20 18:12:49 +0300 (Tue, 20 Oct 2015) $
#$Revision: 169209 $
#$URL: svn://www.crystallography.net/cod/cif/1/54/00/1540052.cif $
#------------------------------------------------------------------------------
#
# This file is available in the Crystallography Open Database (COD),
# http://www.crystallography.net/
#
# All data on this site have been placed in the public domain by the
# contributors.
#
data_1540052
loop_
_publ_author_name
'Han, S.H.'
'Gschneidner, K.A.jr.'
'Beaudry, B.J.'
_publ_section_title
;
 Preparation of the metastable high pressure ?-R2S3 phase (R= Er, Tm, Yb
 and Lu) by mechanical milling
;
_journal_name_full               'Journal of Alloys Compd.'
_journal_page_first              463
_journal_page_last               468
_journal_volume                  181
_journal_year                    1992
_chemical_formula_sum            'Er2.667 S4'
_chemical_name_systematic        'Er2.667 S4'
_space_group_IT_number           220
_symmetry_space_group_name_Hall  'I -4bd 2c 3'
_symmetry_space_group_name_H-M   'I -4 3 d'
_cell_angle_alpha                90
_cell_angle_beta                 90
_cell_angle_gamma                90
_cell_formula_units_Z            4
_cell_length_a                   8.338
_cell_length_b                   8.338
_cell_length_c                   8.338
_cell_volume                     579.676
_citation_journal_id_ASTM        JALCEU
_cod_data_source_file            Han_JALCEU_1992_718.cif
_cod_data_source_block           Er2.667S4
_cod_original_cell_volume        579.6765
_cod_database_code               1540052
loop_
_symmetry_equiv_pos_as_xyz
x,y,z
y+1/4,-x+3/4,-z+1/4
-x,-y+1/2,z
-y+3/4,x+3/4,-z+1/4
x,-y,-z+1/2
-y+1/4,-x+3/4,z+3/4
-x,y+1/2,-z+1/2
y+3/4,x+3/4,z+3/4
z,x,y
x+1/4,-z+3/4,-y+1/4
-z,-x+1/2,y
-x+3/4,z+3/4,-y+1/4
z,-x,-y+1/2
-x+1/4,-z+3/4,y+3/4
-z,x+1/2,-y+1/2
x+3/4,z+3/4,y+3/4
y,z,x
y,-z,-x+1/2
-z+1/4,-y+3/4,x+3/4
-y,z+1/2,-x+1/2
z+1/4,y+1/4,x+1/4
-y+1/2,-z,x+1/2
-z+1/4,y+1/4,-x+3/4
z+3/4,-y+1/4,-x+3/4
x+1/2,y+1/2,z+1/2
y+3/4,-x+5/4,-z+3/4
-x+1/2,-y+1,z+1/2
-y+5/4,x+5/4,-z+3/4
x+1/2,-y+1/2,-z+1
-y+3/4,-x+5/4,z+5/4
-x+1/2,y+1,-z+1
y+5/4,x+5/4,z+5/4
z+1/2,x+1/2,y+1/2
x+3/4,-z+5/4,-y+3/4
-z+1/2,-x+1,y+1/2
-x+5/4,z+5/4,-y+3/4
z+1/2,-x+1/2,-y+1
-x+3/4,-z+5/4,y+5/4
-z+1/2,x+1,-y+1
x+5/4,z+5/4,y+5/4
y+1/2,z+1/2,x+1/2
y+1/2,-z+1/2,-x+1
-z+3/4,-y+5/4,x+5/4
-y+1/2,z+1,-x+1
z+3/4,y+3/4,x+3/4
-y+1,-z+1/2,x+1
-z+3/4,y+3/4,-x+5/4
z+5/4,-y+3/4,-x+5/4
loop_
_atom_site_label
_atom_site_type_symbol
_atom_site_fract_x
_atom_site_fract_y
_atom_site_fract_z
_atom_site_occupancy
_atom_site_U_iso_or_equiv
S1 S-2 0.083 0.083 0.083 1 0.0
Er1 Er+3 0.375 0 0.25 0.889 0.0
