#------------------------------------------------------------------------------
#$Date: 2015-10-20 19:28:26 +0300 (Tue, 20 Oct 2015) $
#$Revision: 169346 $
#$URL: svn://www.crystallography.net/cod/cif/1/54/01/1540154.cif $
#------------------------------------------------------------------------------
#
# This file is available in the Crystallography Open Database (COD),
# http://www.crystallography.net/
#
# All data on this site have been placed in the public domain by the
# contributors.
#
data_1540154
loop_
_publ_author_name
'Isnard, O.'
'Soubeyroux, J.L.'
'Buschow, K.H.J.'
'Fruchart, D.'
'Jacobs, T.H.'
_publ_section_title
;
 Structural and magnetic behaviour of the series Th2 Fe17 Cx (x= 0 to
 1.25)
;
_journal_name_full               'Journal of Alloys Compd.'
_journal_page_first              135
_journal_page_last               145
_journal_volume                  186
_journal_year                    1992
_chemical_formula_sum            'Fe17 Th2'
_chemical_name_systematic        'Fe17 Th2'
_space_group_IT_number           166
_symmetry_space_group_name_Hall  '-R 3 2"'
_symmetry_space_group_name_H-M   'R -3 m :H'
_cell_angle_alpha                90
_cell_angle_beta                 90
_cell_angle_gamma                120
_cell_formula_units_Z            3
_cell_length_a                   8.578
_cell_length_b                   8.578
_cell_length_c                   12.476
_cell_volume                     795.020
_citation_journal_id_ASTM        JALCEU
_cod_data_source_file            Isnard_JALCEU_1992_746.cif
_cod_data_source_block           Fe17Th2
_cod_original_cell_volume        795.0201
_cod_database_code               1540154
loop_
_symmetry_equiv_pos_as_xyz
x,y,z
-y,x-y,z
-x+y,-x,z
y,x,-z
-x,-x+y,-z
x-y,-y,-z
-x,-y,-z
y,-x+y,-z
x-y,x,-z
-y,-x,z
x,x-y,z
-x+y,y,z
x+2/3,y+1/3,z+1/3
-y+2/3,x-y+1/3,z+1/3
-x+y+2/3,-x+1/3,z+1/3
y+2/3,x+1/3,-z+1/3
-x+2/3,-x+y+1/3,-z+1/3
x-y+2/3,-y+1/3,-z+1/3
-x+2/3,-y+1/3,-z+1/3
y+2/3,-x+y+1/3,-z+1/3
x-y+2/3,x+1/3,-z+1/3
-y+2/3,-x+1/3,z+1/3
x+2/3,x-y+1/3,z+1/3
-x+y+2/3,y+1/3,z+1/3
x+1/3,y+2/3,z+2/3
-y+1/3,x-y+2/3,z+2/3
-x+y+1/3,-x+2/3,z+2/3
y+1/3,x+2/3,-z+2/3
-x+1/3,-x+y+2/3,-z+2/3
x-y+1/3,-y+2/3,-z+2/3
-x+1/3,-y+2/3,-z+2/3
y+1/3,-x+y+2/3,-z+2/3
x-y+1/3,x+2/3,-z+2/3
-y+1/3,-x+2/3,z+2/3
x+1/3,x-y+2/3,z+2/3
-x+y+1/3,y+2/3,z+2/3
loop_
_atom_site_label
_atom_site_type_symbol
_atom_site_fract_x
_atom_site_fract_y
_atom_site_fract_z
_atom_site_occupancy
_atom_site_U_iso_or_equiv
Fe3 Fe 0.2874 0 0 1 0.0
Fe2 Fe 0.5 0 0.5 1 0.0
Fe4 Fe 0.5021 0.4979 0.1574 1 0.0
Th1 Th 0 0 0.343 1 0.0
Fe1 Fe 0 0 0.0943 1 0.0
