#------------------------------------------------------------------------------
#$Date: 2016-02-13 21:28:24 +0200 (Sat, 13 Feb 2016) $
#$Revision: 176429 $
#$URL: svn://www.crystallography.net/cod/cif/1/54/01/1540120.cif $
#------------------------------------------------------------------------------
#
# This file is available in the Crystallography Open Database (COD),
# http://www.crystallography.net/
#
# All data on this site have been placed in the public domain by the
# contributors.
#
data_1540120
loop_
_publ_author_name
'Howlett, B.W.'
_publ_section_title
;
 The alloy system uranium-titanium-zirconium
;
_journal_name_full               'Journal of Nuclear Materials'
_journal_page_first              289
_journal_page_last               299
_journal_volume                  1959
_journal_year                    1959
_chemical_formula_sum            'Ti U2'
_chemical_name_systematic        'Ti U2'
_space_group_IT_number           191
_symmetry_space_group_name_Hall  '-P 6 2'
_symmetry_space_group_name_H-M   'P 6/m m m'
_cell_angle_alpha                90
_cell_angle_beta                 90
_cell_angle_gamma                120
_cell_formula_units_Z            1
_cell_length_a                   4.828
_cell_length_b                   4.828
_cell_length_c                   2.847
_cell_volume                     57.472
_citation_journal_id_ASTM        JNUMAM
_cod_data_source_file            Howlett_JNUMAM_1959_173.cif
_cod_data_source_block           Ti1U2
_cod_original_cell_volume        57.47151
_cod_original_formula_sum        'Ti1 U2'
_cod_database_code               1540120
loop_
_symmetry_equiv_pos_as_xyz
x,y,z
x-y,x,z
-y,x-y,z
-x,-y,z
-x+y,-x,z
y,-x+y,z
-y,-x,-z
x-y,-y,-z
x,x-y,-z
y,x,-z
-x+y,y,-z
-x,-x+y,-z
-x,-y,-z
-x+y,-x,-z
y,-x+y,-z
x,y,-z
x-y,x,-z
-y,x-y,-z
y,x,z
-x+y,y,z
-x,-x+y,z
-y,-x,z
x-y,-y,z
x,x-y,z
loop_
_atom_site_label
_atom_site_type_symbol
_atom_site_fract_x
_atom_site_fract_y
_atom_site_fract_z
_atom_site_occupancy
_atom_site_U_iso_or_equiv
U1 U 0.3333 0.6667 0.5 1 0.0
Ti1 Ti 0 0 0 1 0.0
