#------------------------------------------------------------------------------
#$Date: 2016-02-13 21:28:24 +0200 (Sat, 13 Feb 2016) $
#$Revision: 176429 $
#$URL: svn://www.crystallography.net/cod/cif/1/54/03/1540310.cif $
#------------------------------------------------------------------------------
#
# This file is available in the Crystallography Open Database (COD),
# http://www.crystallography.net/
#
# All data on this site have been placed in the public domain by the
# contributors.
#
data_1540310
loop_
_publ_author_name
'Kotroczo, V.'
'McColm, I.J.'
_publ_section_title
;
 Phases in rapidly cooled scandium-silicon samples
;
_journal_name_full               'Journal of Alloys Compd.'
_journal_page_first              259
_journal_page_last               265
_journal_volume                  203
_journal_year                    1994
_chemical_formula_sum            'Sc Si2'
_chemical_name_systematic        'Sc Si2'
_space_group_IT_number           191
_symmetry_space_group_name_Hall  '-P 6 2'
_symmetry_space_group_name_H-M   'P 6/m m m'
_cell_angle_alpha                90
_cell_angle_beta                 90
_cell_angle_gamma                120
_cell_formula_units_Z            1
_cell_length_a                   3.662
_cell_length_b                   3.662
_cell_length_c                   3.879
_cell_volume                     45.049
_citation_journal_id_ASTM        JALCEU
_cod_data_source_file            Kotroczo_JALCEU_1994_941.cif
_cod_data_source_block           Sc1Si2
_cod_original_cell_volume        45.0492
_cod_original_formula_sum        'Sc1 Si2'
_cod_database_code               1540310
loop_
_symmetry_equiv_pos_as_xyz
x,y,z
x-y,x,z
-y,x-y,z
-x,-y,z
-x+y,-x,z
y,-x+y,z
-y,-x,-z
x-y,-y,-z
x,x-y,-z
y,x,-z
-x+y,y,-z
-x,-x+y,-z
-x,-y,-z
-x+y,-x,-z
y,-x+y,-z
x,y,-z
x-y,x,-z
-y,x-y,-z
y,x,z
-x+y,y,z
-x,-x+y,z
-y,-x,z
x-y,-y,z
x,x-y,z
loop_
_atom_site_label
_atom_site_type_symbol
_atom_site_fract_x
_atom_site_fract_y
_atom_site_fract_z
_atom_site_occupancy
_atom_site_U_iso_or_equiv
Sc1 Sc 0 0 0 1 0.0
Si1 Si 0.3333 0.6667 0.5 1 0.0
