#------------------------------------------------------------------------------
#$Date: 2016-01-01 13:13:41 +0200 (Fri, 01 Jan 2016) $
#$Revision: 172033 $
#$URL: svn://www.crystallography.net/cod/cif/1/54/08/1540870.cif $
#------------------------------------------------------------------------------
#
# This file is available in the Crystallography Open Database (COD),
# http://www.crystallography.net/
#
# All data on this site have been placed in the public domain by the
# contributors.
#
data_1540870
loop_
_publ_author_name
'van Vucht, J.H.N.'
'Bruning, H.A.C.M.'
'Donkersloot, H.C.'
'Gomes de Mesquita, A.H.'
_publ_section_title
;
 The system V-Ga
;
_journal_name_full               'Philips Research Reports'
_journal_page_first              407
_journal_page_last               421
_journal_volume                  19
_journal_year                    1964
_chemical_formula_sum            'Sn5 Ti6'
_chemical_name_systematic        'Sn5 Ti6'
_space_group_IT_number           194
_symmetry_space_group_name_Hall  '-P 6c 2c'
_symmetry_space_group_name_H-M   'P 63/m m c'
_cell_angle_alpha                90
_cell_angle_beta                 90
_cell_angle_gamma                120
_cell_formula_units_Z            2
_cell_length_a                   9.22
_cell_length_b                   9.22
_cell_length_c                   5.69
_cell_volume                     418.895
_citation_journal_id_ASTM        PRREA9
_cod_data_source_file            vanVucht_PRREA9_1964_1314.cif
_cod_data_source_block           Sn5Ti6
_cod_original_cell_volume        418.8946
_cod_database_code               1540870
loop_
_symmetry_equiv_pos_as_xyz
x,y,z
x-y,x,z+1/2
-y,x-y,z
-x,-y,z+1/2
-x+y,-x,z
y,-x+y,z+1/2
-y,-x,-z+1/2
x-y,-y,-z
x,x-y,-z+1/2
y,x,-z
-x+y,y,-z+1/2
-x,-x+y,-z
-x,-y,-z
-x+y,-x,-z-1/2
y,-x+y,-z
x,y,-z-1/2
x-y,x,-z
-y,x-y,-z-1/2
y,x,z-1/2
-x+y,y,z
-x,-x+y,z-1/2
-y,-x,z
x-y,-y,z-1/2
x,x-y,z
loop_
_atom_site_label
_atom_site_type_symbol
_atom_site_fract_x
_atom_site_fract_y
_atom_site_fract_z
_atom_site_occupancy
_atom_site_U_iso_or_equiv
Sn2 Sn 0.3333 0.6667 0.25 1 0.0
Sn1 Sn 0 0 0 1 0.0
Ti2 Ti 0.165 0.33 0.25 1 0.0
Ti1 Ti 0.5 0 0 1 0.0
Sn3 Sn 0.795 0.59 0.25 1 0.0
