#------------------------------------------------------------------------------
#$Date: 2016-02-13 21:28:24 +0200 (Sat, 13 Feb 2016) $
#$Revision: 176429 $
#$URL: svn://www.crystallography.net/cod/cif/1/54/08/1540808.cif $
#------------------------------------------------------------------------------
#
# This file is available in the Crystallography Open Database (COD),
# http://www.crystallography.net/
#
# All data on this site have been placed in the public domain by the
# contributors.
#
data_1540808
loop_
_publ_author_name
'Yuen, T.'
'Bykovetz, N.'
'Jiang, G.Y.'
'Crow, J.E.'
'Lin, C.L.'
'Wise, P.P.'
_publ_section_title
;
 A 119Sn Moessbauer study of the magnetic to nonmagnetic transition in U
 (In1-x Snx)3
;
_journal_name_full               'Physik (Berlin)'
_journal_page_first              367
_journal_page_last               372
_journal_volume                  171
_journal_year                    1991
_chemical_formula_sum            'Sn3 U'
_chemical_name_systematic        'Sn3 U'
_space_group_IT_number           221
_symmetry_space_group_name_Hall  '-P 4 2 3'
_symmetry_space_group_name_H-M   'P m -3 m'
_cell_angle_alpha                90
_cell_angle_beta                 90
_cell_angle_gamma                90
_cell_formula_units_Z            1
_cell_length_a                   4.61
_cell_length_b                   4.61
_cell_length_c                   4.61
_cell_volume                     97.972
_citation_journal_id_ASTM        PHYBE3
_cod_data_source_file            Yuen_PHYBE3_1991_83.cif
_cod_data_source_block           Sn3U1
_cod_original_cell_volume        97.97219
_cod_original_formula_sum        'Sn3 U1'
_cod_database_code               1540808
loop_
_symmetry_equiv_pos_as_xyz
x,y,z
-y,x,z
-x,-y,z
y,-x,z
x,-y,-z
y,x,-z
-x,y,-z
-y,-x,-z
z,x,y
-x,z,y
-z,-x,y
x,-z,y
z,-x,-y
x,z,-y
-z,x,-y
-x,-z,-y
y,z,x
y,-z,-x
z,y,-x
-y,z,-x
-z,-y,-x
-y,-z,x
z,-y,x
-z,y,x
-x,-y,-z
y,-x,-z
x,y,-z
-y,x,-z
-x,y,z
-y,-x,z
x,-y,z
y,x,z
-z,-x,-y
x,-z,-y
z,x,-y
-x,z,-y
-z,x,y
-x,-z,y
z,-x,y
x,z,y
-y,-z,-x
-y,z,x
-z,-y,x
y,-z,x
z,y,x
y,z,-x
-z,y,-x
z,-y,-x
loop_
_atom_site_label
_atom_site_type_symbol
_atom_site_fract_x
_atom_site_fract_y
_atom_site_fract_z
_atom_site_occupancy
_atom_site_U_iso_or_equiv
U1 U 0 0 0 1 0.0
Sn1 Sn 0 0.5 0.5 1 0.0
