#------------------------------------------------------------------------------
#$Date: 2016-02-13 21:28:24 +0200 (Sat, 13 Feb 2016) $
#$Revision: 176429 $
#$URL: svn://www.crystallography.net/cod/cif/1/54/08/1540836.cif $
#------------------------------------------------------------------------------
#
# This file is available in the Crystallography Open Database (COD),
# http://www.crystallography.net/
#
# All data on this site have been placed in the public domain by the
# contributors.
#
data_1540836
loop_
_publ_author_name
'Wang, F.E.'
'Kanda, F.A.'
'King, A.J.'
_publ_section_title
;
 The Li-Sr equilibrium system
;
_journal_name_full               'Journal of Physical Chemistry'
_journal_page_first              2138
_journal_page_last               2142
_journal_volume                  66
_journal_year                    1962
_chemical_formula_sum            Sr
_chemical_name_systematic        Sr
_space_group_IT_number           194
_symmetry_space_group_name_Hall  '-P 6c 2c'
_symmetry_space_group_name_H-M   'P 63/m m c'
_cell_angle_alpha                90
_cell_angle_beta                 90
_cell_angle_gamma                120
_cell_formula_units_Z            2
_cell_length_a                   4.31
_cell_length_b                   4.31
_cell_length_c                   7.05
_cell_volume                     113.416
_citation_journal_id_ASTM        JPCHAX
_cod_data_source_file            Wang_JPCHAX_1962_96.cif
_cod_data_source_block           Sr1
_cod_original_formula_sum        Sr1
_cod_database_code               1540836
loop_
_symmetry_equiv_pos_as_xyz
x,y,z
x-y,x,z+1/2
-y,x-y,z
-x,-y,z+1/2
-x+y,-x,z
y,-x+y,z+1/2
-y,-x,-z+1/2
x-y,-y,-z
x,x-y,-z+1/2
y,x,-z
-x+y,y,-z+1/2
-x,-x+y,-z
-x,-y,-z
-x+y,-x,-z-1/2
y,-x+y,-z
x,y,-z-1/2
x-y,x,-z
-y,x-y,-z-1/2
y,x,z-1/2
-x+y,y,z
-x,-x+y,z-1/2
-y,-x,z
x-y,-y,z-1/2
x,x-y,z
loop_
_atom_site_label
_atom_site_type_symbol
_atom_site_fract_x
_atom_site_fract_y
_atom_site_fract_z
_atom_site_occupancy
_atom_site_U_iso_or_equiv
Sr1 Sr 0.3333 0.6667 0.25 1 0.0
