#------------------------------------------------------------------------------
#$Date: 2016-01-01 13:41:09 +0200 (Fri, 01 Jan 2016) $
#$Revision: 172065 $
#$URL: svn://www.crystallography.net/cod/cif/1/54/08/1540890.cif $
#------------------------------------------------------------------------------
#
# This file is available in the Crystallography Open Database (COD),
# http://www.crystallography.net/
#
# All data on this site have been placed in the public domain by the
# contributors.
#
data_1540890
loop_
_publ_author_name
'Schachner, H.'
'Machenschalk, R.'
'Nowotny, H.'
_publ_section_title
;
 Zum Aufbau des Systems: Zirkonium-Silizium
;
_journal_name_full               'Monatshefte fuer Chemie (-108,1977)'
_journal_page_first              677
_journal_page_last               677
_journal_volume                  84
_journal_year                    1953
_chemical_formula_sum            'Si3 Zr5'
_chemical_name_systematic        'Zr5 Si3'
_space_group_IT_number           193
_symmetry_space_group_name_Hall  '-P 6c 2'
_symmetry_space_group_name_H-M   'P 63/m c m'
_cell_angle_alpha                90
_cell_angle_beta                 90
_cell_angle_gamma                120
_cell_formula_units_Z            2
_cell_length_a                   7.886
_cell_length_b                   7.886
_cell_length_c                   5.558
_cell_volume                     299.339
_citation_journal_id_ASTM        MOCHAP
_cod_data_source_file            Schachner_MOCHAP_1953_47.cif
_cod_data_source_block           Si3Zr5
_cod_original_cell_volume        299.3386
_cod_database_code               1540890
loop_
_symmetry_equiv_pos_as_xyz
x,y,z
x-y,x,z+1/2
-y,x-y,z
-x,-y,z+1/2
-x+y,-x,z
y,-x+y,z+1/2
-y,-x,-z
x-y,-y,-z+1/2
x,x-y,-z
y,x,-z+1/2
-x+y,y,-z
-x,-x+y,-z+1/2
-x,-y,-z
-x+y,-x,-z-1/2
y,-x+y,-z
x,y,-z-1/2
x-y,x,-z
-y,x-y,-z-1/2
y,x,z
-x+y,y,z-1/2
-x,-x+y,z
-y,-x,z-1/2
x-y,-y,z
x,x-y,z-1/2
loop_
_atom_site_label
_atom_site_type_symbol
_atom_site_fract_x
_atom_site_fract_y
_atom_site_fract_z
_atom_site_occupancy
_atom_site_U_iso_or_equiv
Zr2 Zr 0.25 0 0.25 1 0.0
Zr1 Zr 0.3333 0.6667 0 1 0.0
Si1 Si 0.61 0 0.25 1 0.0
