#------------------------------------------------------------------------------
#$Date: 2016-12-18 22:42:34 +0200 (Sun, 18 Dec 2016) $
#$Revision: 189200 $
#$URL: file:///home/coder/svn-repositories/cod/cif/9/00/80/9008023.cif $
#------------------------------------------------------------------------------
#
# This file is available in the Crystallography Open Database (COD),
# http://www.crystallography.net/. The original data for this entry
# were provided the American Mineralogist Crystal Structure Database,
# http://rruff.geo.arizona.edu/AMS/amcsd.php
#
# The file may be used within the scientific community so long as
# proper attribution is given to the journal article from which the
# data were obtained.
#
data_9008023
loop_
_publ_author_name
'West, C. D.'
_publ_section_title
;
 The crystal structures of some alkali hydrosulfides and monosulfides
;
_journal_name_full               'Zeitschrift fur Kristallographie'
_journal_page_first              97
_journal_page_last               115
_journal_volume                  88
_journal_year                    1934
_chemical_formula_structural     KSH
_chemical_formula_sum            'K S'
_space_group_IT_number           166
_symmetry_space_group_name_Hall  '-P 3* 2'
_symmetry_space_group_name_H-M   'R -3 m :R'
_cell_angle_alpha                68.85
_cell_angle_beta                 68.85
_cell_angle_gamma                68.85
_cell_length_a                   4.374
_cell_length_b                   4.374
_cell_length_c                   4.374
_cell_volume                     70.183
_exptl_crystal_density_diffrn    1.684
_cod_original_sg_symbol_H-M      'R -3 m'
_cod_database_code               9008023
loop_
_symmetry_equiv_pos_as_xyz
x,y,z
-x,-z,-y
-z,-x,-y
y,x,z
y,z,x
-z,-y,-x
-x,-y,-z
x,z,y
z,x,y
-y,-x,-z
-y,-z,-x
z,y,x
loop_
_atom_site_label
_atom_site_fract_x
_atom_site_fract_y
_atom_site_fract_z
_atom_site_attached_hydrogens
K 0.00000 0.00000 0.00000 0
S 0.50000 0.50000 0.50000 1
