#------------------------------------------------------------------------------
#$Date: 2016-11-09 18:21:20 +0200 (Wed, 09 Nov 2016) $
#$Revision: 188358 $
#$URL: file:///home/coder/svn-repositories/cod/cif/9/00/80/9008021.cif $
#------------------------------------------------------------------------------
#
# This file is available in the Crystallography Open Database (COD),
# http://www.crystallography.net/. The original data for this entry
# were provided the American Mineralogist Crystal Structure Database,
# http://rruff.geo.arizona.edu/AMS/amcsd.php
#
# The file may be used within the scientific community so long as
# proper attribution is given to the journal article from which the
# data were obtained.
#
data_9008021
loop_
_publ_author_name
'West, C. D.'
_publ_section_title
;
 The crystal structures of some alkali hydrosulfides and monosulfides
;
_journal_name_full               'Zeitschrift fur Kristallographie'
_journal_page_first              97
_journal_page_last               115
_journal_volume                  88
_journal_year                    1934
_chemical_formula_structural     CsSH
_chemical_formula_sum            'Cs S'
_space_group_IT_number           221
_symmetry_space_group_name_Hall  '-P 4 2 3'
_symmetry_space_group_name_H-M   'P m -3 m'
_cell_angle_alpha                90
_cell_angle_beta                 90
_cell_angle_gamma                90
_cell_length_a                   4.291
_cell_length_b                   4.291
_cell_length_c                   4.291
_cell_volume                     79.009
_exptl_crystal_density_diffrn    3.467
_cod_original_sg_symbol_H-M      'P m 3 m'
_cod_database_code               9008021
loop_
_symmetry_equiv_pos_as_xyz
x,y,z
z,-x,y
-y,z,-x
x,-y,z
-z,x,-y
y,-z,x
-x,y,-z
x,-z,-y
-z,y,x
y,-x,-z
-x,z,y
z,-y,-x
-y,x,z
x,z,y
-z,-y,-x
y,x,z
-x,-z,-y
z,y,x
-y,-x,-z
z,x,-y
-y,-z,x
x,y,-z
-z,-x,y
y,z,-x
-x,-y,z
-z,x,y
y,-z,-x
-x,y,z
z,-x,-y
-y,z,x
x,-y,-z
-x,z,-y
z,-y,x
-y,x,-z
x,-z,y
-z,y,-x
y,-x,z
-x,-z,y
z,y,-x
-y,-x,z
x,z,-y
-z,-y,x
y,x,-z
-z,-x,-y
y,z,x
-x,-y,-z
z,x,y
-y,-z,-x
loop_
_atom_site_label
_atom_site_fract_x
_atom_site_fract_y
_atom_site_fract_z
_atom_site_attached_hydrogens
Cs 0.00000 0.00000 0.00000 0
S 0.50000 0.50000 0.50000 1
