#------------------------------------------------------------------------------
#$Date: 2016-02-16 14:49:47 +0200 (Tue, 16 Feb 2016) $
#$Revision: 176465 $
#$URL: svn://www.crystallography.net/cod/cif/9/00/83/9008330.cif $
#------------------------------------------------------------------------------
#
# This file is available in the Crystallography Open Database (COD),
# http://www.crystallography.net/. The original data for this entry
# were provided the American Mineralogist Crystal Structure Database,
# http://rruff.geo.arizona.edu/AMS/amcsd.php
#
# The file may be used within the scientific community so long as
# proper attribution is given to the journal article from which the
# data were obtained.
#
data_9008330
loop_
_publ_author_name
'Pearson, W. B.'
_publ_section_title
;
 The Cu2Sb and related structures
;
_journal_name_full               'Zeitschrift fur Kristallographie'
_journal_page_first              23
_journal_page_last               39
_journal_volume                  171
_journal_year                    1985
_chemical_formula_structural     Cr2As
_chemical_formula_sum            'As Cr2'
_space_group_IT_number           129
_symmetry_space_group_name_Hall  'P 4ab 2ab -1ab'
_symmetry_space_group_name_H-M   'P 4/n m m :1'
_cell_angle_alpha                90
_cell_angle_beta                 90
_cell_angle_gamma                90
_cell_length_a                   3.5923
_cell_length_b                   3.5923
_cell_length_c                   6.3437
_cell_volume                     81.863
_exptl_crystal_density_diffrn    7.258
_cod_original_sg_symbol_H-M      'P 4/n m m'
_cod_original_formula_sum        'Cr2 As'
_cod_database_code               9008330
loop_
_symmetry_equiv_pos_as_xyz
x,y,z
1/2-y,1/2-x,z
y,x,-z
y,-x,-z
1/2-y,1/2+x,z
x,-y,z
1/2-x,1/2+y,-z
1/2+x,1/2+y,-z
-x,-y,z
1/2+y,1/2+x,z
-y,-x,-z
-y,x,-z
1/2+y,1/2-x,z
-x,y,z
1/2+x,1/2-y,-z
1/2-x,1/2-y,-z
loop_
_atom_site_label
_atom_site_fract_x
_atom_site_fract_y
_atom_site_fract_z
Cr1 0.00000 0.00000 0.00000
Cr2 0.50000 0.00000 0.67500
As 0.50000 0.00000 0.27500
