#------------------------------------------------------------------------------
#$Date: 2016-02-16 14:49:47 +0200 (Tue, 16 Feb 2016) $
#$Revision: 176465 $
#$URL: svn://www.crystallography.net/cod/cif/9/00/83/9008324.cif $
#------------------------------------------------------------------------------
#
# This file is available in the Crystallography Open Database (COD),
# http://www.crystallography.net/. The original data for this entry
# were provided the American Mineralogist Crystal Structure Database,
# http://rruff.geo.arizona.edu/AMS/amcsd.php
#
# The file may be used within the scientific community so long as
# proper attribution is given to the journal article from which the
# data were obtained.
#
data_9008324
loop_
_publ_author_name
'Pearson, W. B.'
_publ_section_title
;
 The Cu2Sb and related structures
;
_journal_name_full               'Zeitschrift fur Kristallographie'
_journal_page_first              23
_journal_page_last               39
_journal_volume                  171
_journal_year                    1985
_chemical_formula_structural     Mn2As
_chemical_formula_sum            'As Mn2'
_space_group_IT_number           129
_symmetry_space_group_name_Hall  'P 4ab 2ab -1ab'
_symmetry_space_group_name_H-M   'P 4/n m m :1'
_cell_angle_alpha                90
_cell_angle_beta                 90
_cell_angle_gamma                90
_cell_length_a                   3.769
_cell_length_b                   3.769
_cell_length_c                   6.278
_cell_volume                     89.181
_exptl_crystal_density_diffrn    6.882
_cod_original_sg_symbol_H-M      'P 4/n m m'
_cod_original_formula_sum        'Mn2 As'
_cod_database_code               9008324
loop_
_symmetry_equiv_pos_as_xyz
x,y,z
1/2-y,1/2-x,z
y,x,-z
y,-x,-z
1/2-y,1/2+x,z
x,-y,z
1/2-x,1/2+y,-z
1/2+x,1/2+y,-z
-x,-y,z
1/2+y,1/2+x,z
-y,-x,-z
-y,x,-z
1/2+y,1/2-x,z
-x,y,z
1/2+x,1/2-y,-z
1/2-x,1/2-y,-z
loop_
_atom_site_label
_atom_site_fract_x
_atom_site_fract_y
_atom_site_fract_z
Mn1 0.00000 0.00000 0.00000
Mn2 0.50000 0.00000 0.67000
As 0.50000 0.00000 0.26500
