#------------------------------------------------------------------------------
#$Date: 2016-02-16 14:49:47 +0200 (Tue, 16 Feb 2016) $
#$Revision: 176465 $
#$URL: svn://www.crystallography.net/cod/cif/9/00/89/9008992.cif $
#------------------------------------------------------------------------------
#
# This file is available in the Crystallography Open Database (COD),
# http://www.crystallography.net/. The original data for this entry
# were provided the American Mineralogist Crystal Structure Database,
# http://rruff.geo.arizona.edu/AMS/amcsd.php
#
# The file may be used within the scientific community so long as
# proper attribution is given to the journal article from which the
# data were obtained.
#
data_9008992
loop_
_publ_author_name
'Wyckoff, R. W. G.'
_publ_section_title
;
 Second edition. Interscience Publishers, New York, New York
 Iodine monochloride
;
_journal_name_full               'Crystal Structures'
_journal_page_first              85
_journal_page_last               237
_journal_volume                  1
_journal_year                    1963
_chemical_formula_structural     ICl
_chemical_formula_sum            'Cl I'
_space_group_IT_number           14
_symmetry_space_group_name_Hall  '-P 2ybc'
_symmetry_space_group_name_H-M   'P 1 21/c 1'
_cell_angle_alpha                90
_cell_angle_beta                 119.50
_cell_angle_gamma                90
_cell_length_a                   12.60
_cell_length_b                   4.38
_cell_length_c                   11.90
_cell_volume                     571.595
_exptl_crystal_density_diffrn    3.773
_cod_original_formula_sum        'I Cl'
_cod_database_code               9008992
loop_
_symmetry_equiv_pos_as_xyz
x,y,z
x,1/2-y,1/2+z
-x,1/2+y,1/2-z
-x,-y,-z
loop_
_atom_site_label
_atom_site_fract_x
_atom_site_fract_y
_atom_site_fract_z
I1 0.17900 0.36600 0.58800
I2 0.29700 0.63200 0.43600
Cl1 0.08400 0.15200 0.70600
Cl2 0.46200 0.85800 0.62000
