#------------------------------------------------------------------------------
#$Date: 2016-11-07 12:07:22 +0200 (Mon, 07 Nov 2016) $
#$Revision: 188006 $
#$URL: file:///home/coder/svn-repositories/cod/cif/9/00/80/9008022.cif $
#------------------------------------------------------------------------------
#
# This file is available in the Crystallography Open Database (COD),
# http://www.crystallography.net/. The original data for this entry
# were provided the American Mineralogist Crystal Structure Database,
# http://rruff.geo.arizona.edu/AMS/amcsd.php
#
# The file may be used within the scientific community so long as
# proper attribution is given to the journal article from which the
# data were obtained.
#
data_9008022
loop_
_publ_author_name
'West, C. D.'
_publ_section_title
;
 The crystal structures of some alkali hydrosulfides and monosulfides
;
_journal_name_full               'Zeitschrift fur Kristallographie'
_journal_page_first              97
_journal_page_last               115
_journal_volume                  88
_journal_year                    1934
_chemical_formula_structural     (NH4)SH
_chemical_formula_sum            'N S'
_space_group_IT_number           129
_symmetry_space_group_name_Hall  'P 4ab 2ab -1ab'
_symmetry_space_group_name_H-M   'P 4/n m m :1'
_cell_angle_alpha                90
_cell_angle_beta                 90
_cell_angle_gamma                90
_cell_length_a                   6.01
_cell_length_b                   6.01
_cell_length_c                   4.01
_cell_volume                     144.842
_exptl_crystal_density_diffrn    1.056
_cod_original_sg_symbol_H-M      'P 4/n m m'
_cod_database_code               9008022
loop_
_symmetry_equiv_pos_as_xyz
x,y,z
1/2-y,1/2-x,z
y,x,-z
y,-x,-z
1/2-y,1/2+x,z
x,-y,z
1/2-x,1/2+y,-z
1/2+x,1/2+y,-z
-x,-y,z
1/2+y,1/2+x,z
-y,-x,-z
-y,x,-z
1/2+y,1/2-x,z
-x,y,z
1/2+x,1/2-y,-z
1/2-x,1/2-y,-z
loop_
_atom_site_label
_atom_site_fract_x
_atom_site_fract_y
_atom_site_fract_z
_atom_site_attached_hydrogens
N 0.00000 0.00000 0.00000 4
S 0.50000 0.00000 0.34000 1
