#------------------------------------------------------------------------------
#$Date: 2016-02-16 14:49:47 +0200 (Tue, 16 Feb 2016) $
#$Revision: 176465 $
#$URL: svn://www.crystallography.net/cod/cif/9/00/06/9000615.cif $
#------------------------------------------------------------------------------
#
# This file is available in the Crystallography Open Database (COD),
# http://www.crystallography.net/. The original data for this entry
# were provided the American Mineralogist Crystal Structure Database,
# http://rruff.geo.arizona.edu/AMS/amcsd.php
#
# The file may be used within the scientific community so long as
# proper attribution is given to the journal article from which the
# data were obtained.
#
data_9000615
loop_
_publ_author_name
'Hazen, R. M.'
'Finger, L. W.'
_publ_section_title
;
 The crystal structures and compressibilities of layer minerals at high
 pressure.  I. SnS2, berndtite
 P = 30 kbar
;
_journal_name_full               'American Mineralogist'
_journal_page_first              289
_journal_page_last               292
_journal_volume                  63
_journal_year                    1978
_chemical_formula_sum            'S2 Sn'
_chemical_name_mineral           Berndtite-2T
_space_group_IT_number           164
_symmetry_space_group_name_Hall  '-P 3 2"'
_symmetry_space_group_name_H-M   'P -3 m 1'
_cell_angle_alpha                90
_cell_angle_beta                 90
_cell_angle_gamma                120
_cell_length_a                   3.605
_cell_length_b                   3.605
_cell_length_c                   5.460
_cell_volume                     61.452
_diffrn_ambient_pressure         3e+06
_exptl_crystal_density_diffrn    4.941
_cod_original_formula_sum        'Sn S2'
_cod_database_code               9000615
loop_
_symmetry_equiv_pos_as_xyz
x,y,z
-y,-x,z
y,-x+y,-z
-x,-x+y,-z
-x+y,-x,z
-x+y,y,z
-x,-y,-z
y,x,-z
-y,x-y,z
x,x-y,z
x-y,x,-z
x-y,-y,-z
loop_
_atom_site_label
_atom_site_fract_x
_atom_site_fract_y
_atom_site_fract_z
_atom_site_U_iso_or_equiv
Sn 0.00000 0.00000 0.00000 0.02406
S 0.66667 0.33333 -0.27100 0.02660
