#------------------------------------------------------------------------------
#$Date: 2015-07-11 15:32:52 +0300 (Sat, 11 Jul 2015) $
#$Revision: 144631 $
#$URL: svn://www.crystallography.net/cod/cif/2/10/61/2106134.cif $
#------------------------------------------------------------------------------
#
# This file is available in the Crystallography Open Database (COD),
# http://www.crystallography.net/. The original data for this entry
# were provided by IUCr Journals, http://journals.iucr.org/.
#
# The file may be used within the scientific community so long as
# proper attribution is given to the journal article from which the
# data were obtained.
#
data_2106134
loop_
_publ_author_name
Arunsingh
'Dayal, B.'
_publ_section_title
;
 On the crystal structure of Cd-Zr intermetallic compounds
;
_journal_name_full               'Acta Crystallographica B (24,1968-38,1982)'
_journal_page_first              1010
_journal_page_last               1011
_journal_volume                  25
_journal_year                    1969
_chemical_formula_sum            'Cd2 Zr3'
_chemical_name_systematic        'Cd2 Zr3'
_space_group_IT_number           47
_symmetry_space_group_name_Hall  '-P 2 2'
_symmetry_space_group_name_H-M   'P m m m'
_cell_angle_alpha                90
_cell_angle_beta                 90
_cell_angle_gamma                90
_cell_formula_units_Z            1
_cell_length_a                   7.86
_cell_length_b                   6.52
_cell_length_c                   5.3
_cell_volume                     271.610
_citation_journal_id_ASTM        ACBCAR
_cod_data_source_file            Arunsingh_ACBCAR_1969_723.cif
_cod_data_source_block           Cd2Zr3
_cod_original_cell_volume        271.6102
_cod_database_code               2106134
loop_
_symmetry_equiv_pos_as_xyz
x,y,z
-x,-y,z
x,-y,-z
-x,y,-z
-x,-y,-z
x,y,-z
-x,y,z
x,-y,z
loop_
_atom_site_label
_atom_site_type_symbol
_atom_site_fract_x
_atom_site_fract_y
_atom_site_fract_z
_atom_site_occupancy
_atom_site_U_iso_or_equiv
Zr2 Zr 0.5 0 0 1 0.0
Cd2 Cd 0.5 0.5 0.5 1 0.0
Zr3 Zr 0 0 0.5 1 0.0
Cd1 Cd 0.5 0 0.5 1 0.0
Zr1 Zr 0 0 0 1 0.0
