#------------------------------------------------------------------------------
#$Date: 2016-02-13 21:28:24 +0200 (Sat, 13 Feb 2016) $
#$Revision: 176429 $
#$URL: svn://www.crystallography.net/cod/cif/2/10/69/2106917.cif $
#------------------------------------------------------------------------------
#
# This file is available in the Crystallography Open Database (COD),
# http://www.crystallography.net/. The original data for this entry
# were provided by IUCr Journals, http://journals.iucr.org/.
#
# The file may be used within the scientific community so long as
# proper attribution is given to the journal article from which the
# data were obtained.
#
data_2106917
loop_
_publ_author_name
'Jain, P.C.'
'Trigunayat, G.C.'
_publ_section_title
;
 Refinements in the method for structure determination of polytypes:
 Crystal structure analysis of 11 new cadmium iodide polytypes
;
_journal_name_full               'Acta Crystallographica B (24,1968-38,1982)'
_journal_page_first              2677
_journal_page_last               2684
_journal_volume                  34
_journal_year                    1978
_chemical_formula_sum            'Cd I2'
_chemical_name_systematic        'Cd I2'
_space_group_IT_number           156
_symmetry_space_group_name_Hall  'P 3 -2"'
_symmetry_space_group_name_H-M   'P 3 m 1'
_cell_angle_alpha                90
_cell_angle_beta                 90
_cell_angle_gamma                120
_cell_formula_units_Z            12
_cell_length_a                   4.24
_cell_length_b                   4.24
_cell_length_c                   82.01999
_cell_volume                     1276.974
_citation_journal_id_ASTM        ACBCAR
_cod_data_source_file            Jain_ACBCAR_1978_373.cif
_cod_data_source_block           Cd1I2
_cod_original_formula_sum        'Cd1 I2'
_cod_database_code               2106917
loop_
_symmetry_equiv_pos_as_xyz
x,y,z
-y,x-y,z
-x+y,-x,z
-y,-x,z
x,x-y,z
-x+y,y,z
loop_
_atom_site_label
_atom_site_type_symbol
_atom_site_fract_x
_atom_site_fract_y
_atom_site_fract_z
_atom_site_occupancy
_atom_site_U_iso_or_equiv
Cd5 Cd+2 0.6667 0.3333 0.35417 1 0.0
I5 I-1 0 0 0.16667 1 0.0
I20 I-1 0.3333 0.6667 0.79167 1 0.0
I2 I-1 0.3333 0.6667 0.04167 1 0.0
Cd4 Cd+2 0 0 0.27083 1 0.0
I12 I-1 0.3333 0.6667 0.45833 1 0.0
I17 I-1 0 0 0.66667 1 0.0
I1 I-1 0 0 0 1 0.0
I16 I-1 0.3333 0.6667 0.625 1 0.0
Cd6 Cd+2 0 0 0.4375 1 0.0
I4 I-1 0.3333 0.6667 0.125 1 0.0
I11 I-1 0.6667 0.3333 0.41667 1 0.0
I22 I-1 0.3333 0.6667 0.875 1 0.0
Cd7 Cd+2 0.6667 0.3333 0.52083 1 0.0
Cd2 Cd+2 0 0 0.10417 1 0.0
I19 I-1 0 0 0.75 1 0.0
Cd10 Cd+2 0.6667 0.3333 0.77083 1 0.0
I24 I-1 0.3333 0.6667 0.95833 1 0.0
Cd1 Cd+2 0.6667 0.3333 0.02083 1 0.0
I6 I-1 0.3333 0.6667 0.20833 1 0.0
I13 I-1 0 0 0.5 1 0.0
I9 I-1 0 0 0.33333 1 0.0
I14 I-1 0.3333 0.6667 0.54167 1 0.0
Cd9 Cd+2 0.6667 0.3333 0.6875 1 0.0
I3 I-1 0.6667 0.3333 0.08333 1 0.0
Cd3 Cd+2 0.6667 0.3333 0.1875 1 0.0
I18 I-1 0.3333 0.6667 0.70833 1 0.0
I7 I-1 0.6667 0.3333 0.25 1 0.0
I23 I-1 0 0 0.91667 1 0.0
I15 I-1 0.6667 0.3333 0.58333 1 0.0
Cd12 Cd+2 0.6667 0.3333 0.9375 1 0.0
I8 I-1 0.3333 0.6667 0.29167 1 0.0
Cd11 Cd+2 0 0 0.85417 1 0.0
I10 I-1 0.3333 0.6667 0.375 1 0.0
I21 I-1 0.6667 0.3333 0.83333 1 0.0
Cd8 Cd+2 0 0 0.60417 1 0.0
