#------------------------------------------------------------------------------
#$Date: 2016-02-13 21:28:24 +0200 (Sat, 13 Feb 2016) $
#$Revision: 176429 $
#$URL: svn://www.crystallography.net/cod/cif/2/10/61/2106145.cif $
#------------------------------------------------------------------------------
#
# This file is available in the Crystallography Open Database (COD),
# http://www.crystallography.net/. The original data for this entry
# were provided by IUCr Journals, http://journals.iucr.org/.
#
# The file may be used within the scientific community so long as
# proper attribution is given to the journal article from which the
# data were obtained.
#
data_2106145
loop_
_publ_author_name
'Erassme, J.'
'Lueken, H.'
_publ_section_title
;
 Strontium and europium polynuclear units in intermetallic compounds with
 magnesium. Structural refinements and relationships
;
_journal_name_full               'Acta Crystallographica B (39,1983-)'
_journal_page_first              244
_journal_page_last               250
_journal_volume                  43
_journal_year                    1987
_chemical_formula_sum            'Eu Mg5.2'
_chemical_name_systematic        'Eu Mg5.2'
_space_group_IT_number           194
_symmetry_space_group_name_Hall  '-P 6c 2c'
_symmetry_space_group_name_H-M   'P 63/m m c'
_cell_angle_alpha                90
_cell_angle_beta                 90
_cell_angle_gamma                120
_cell_formula_units_Z            6
_cell_length_a                   10.395
_cell_length_b                   10.395
_cell_length_c                   10.746
_cell_volume                     1005.603
_citation_journal_id_ASTM        ASBSDK
_cod_data_source_file            Erassme_ASBSDK_1987_1863.cif
_cod_data_source_block           Eu1Mg5.2
_cod_original_formula_sum        'Eu1 Mg5.2'
_cod_database_code               2106145
loop_
_symmetry_equiv_pos_as_xyz
x,y,z
x-y,x,z+1/2
-y,x-y,z
-x,-y,z+1/2
-x+y,-x,z
y,-x+y,z+1/2
-y,-x,-z+1/2
x-y,-y,-z
x,x-y,-z+1/2
y,x,-z
-x+y,y,-z+1/2
-x,-x+y,-z
-x,-y,-z
-x+y,-x,-z-1/2
y,-x+y,-z
x,y,-z-1/2
x-y,x,-z
-y,x-y,-z-1/2
y,x,z-1/2
-x+y,y,z
-x,-x+y,z-1/2
-y,-x,z
x-y,-y,z-1/2
x,x-y,z
loop_
_atom_site_label
_atom_site_type_symbol
_atom_site_fract_x
_atom_site_fract_y
_atom_site_fract_z
_atom_site_occupancy
_atom_site_U_iso_or_equiv
Eu1 Eu 0.1951 0.3902 0.25 1 0.0
Mg7 Mg 0.8401 0.6802 0.0888 1 0.0
Mg4 Mg 0.3333 0.6667 0.9981 1 0.0
Mg1 Mg 0 0 0 0.4 0.0
Mg2 Mg 0 0 0.25 0.77 0.0
Mg5 Mg 0.5 0 0 1 0.0
Mg3 Mg 0 0 0.0883 0.26 0.0
Mg6 Mg 0.568 0.136 0.25 1 0.0
