#------------------------------------------------------------------------------
#$Date: 2015-09-28 15:55:57 +0300 (Mon, 28 Sep 2015) $
#$Revision: 158576 $
#$URL: svn://www.crystallography.net/cod/cif/2/10/67/2106782.cif $
#------------------------------------------------------------------------------
#
# This file is available in the Crystallography Open Database (COD),
# http://www.crystallography.net/. The original data for this entry
# were provided by IUCr Journals, http://journals.iucr.org/.
#
# The file may be used within the scientific community so long as
# proper attribution is given to the journal article from which the
# data were obtained.
#
data_2106782
loop_
_publ_author_name
'Cromer, D.T.'
_publ_section_title
;
 Plutonium-iridium Pu5 Ir3
;
_journal_name_full               'Acta Crystallographica B (24,1968-38,1982)'
_journal_page_first              1996
_journal_page_last               1997
_journal_volume                  33
_journal_year                    1977
_chemical_formula_sum            'Ir3 Pu5'
_chemical_name_systematic        'Pu5 Ir3'
_space_group_IT_number           140
_symmetry_space_group_name_Hall  '-I 4 2c'
_symmetry_space_group_name_H-M   'I 4/m c m'
_cell_angle_alpha                90
_cell_angle_beta                 90
_cell_angle_gamma                90
_cell_formula_units_Z            4
_cell_length_a                   11.012
_cell_length_b                   11.012
_cell_length_c                   5.727
_cell_volume                     694.480
_citation_journal_id_ASTM        ACBCAR
_cod_data_source_file            Cromer_ACBCAR_1977_405.cif
_cod_data_source_block           Ir3Pu5
_cod_original_cell_volume        694.4798
_cod_database_code               2106782
loop_
_symmetry_equiv_pos_as_xyz
x,y,z
-y,x,z
-x,-y,z
y,-x,z
x,-y,-z+1/2
y,x,-z+1/2
-x,y,-z+1/2
-y,-x,-z+1/2
-x,-y,-z
y,-x,-z
x,y,-z
-y,x,-z
-x,y,z-1/2
-y,-x,z-1/2
x,-y,z-1/2
y,x,z-1/2
x+1/2,y+1/2,z+1/2
-y+1/2,x+1/2,z+1/2
-x+1/2,-y+1/2,z+1/2
y+1/2,-x+1/2,z+1/2
x+1/2,-y+1/2,-z+1
y+1/2,x+1/2,-z+1
-x+1/2,y+1/2,-z+1
-y+1/2,-x+1/2,-z+1
-x+1/2,-y+1/2,-z+1/2
y+1/2,-x+1/2,-z+1/2
x+1/2,y+1/2,-z+1/2
-y+1/2,x+1/2,-z+1/2
-x+1/2,y+1/2,z
-y+1/2,-x+1/2,z
x+1/2,-y+1/2,z
y+1/2,x+1/2,z
loop_
_atom_site_label
_atom_site_type_symbol
_atom_site_fract_x
_atom_site_fract_y
_atom_site_fract_z
_atom_site_occupancy
_atom_site_U_iso_or_equiv
Ir2 Ir 0.1583 0.6583 0 1 0.0
Ir1 Ir 0 0 0.25 1 0.0
Pu2 Pu 0.0845 0.2184 0 1 0.0
Pu1 Pu 0 0.5 0.25 1 0.0
