#------------------------------------------------------------------------------
#$Date: 2016-02-13 14:50:18 +0200 (Sat, 13 Feb 2016) $
#$Revision: 176428 $
#$URL: svn://www.crystallography.net/cod/cif/2/10/67/2106703.cif $
#------------------------------------------------------------------------------
#
# This file is available in the Crystallography Open Database (COD),
# http://www.crystallography.net/. The original data for this entry
# were provided by IUCr Journals, http://journals.iucr.org/.
#
# The file may be used within the scientific community so long as
# proper attribution is given to the journal article from which the
# data were obtained.
#
data_2106703
loop_
_publ_author_name
'Koto, K.'
'Morimoto, N.'
'Gyobu, A.'
_publ_section_title
;
 The superstructure of the intermediate pyrrhotite. I. Partially
 disordered distribution of metal vacancy in the 6C type, Fe11 S12
;
_journal_name_full               'Acta Crystallographica B (24,1968-38,1982)'
_journal_page_first              2759
_journal_page_last               2769
_journal_volume                  31
_journal_year                    1975
_chemical_formula_sum            'Fe11 S12'
_chemical_name_systematic        'Fe11 S12'
_space_group_IT_number           1
_symmetry_space_group_name_Hall  'P 1 (1/2*x+1/2*y,1/2*x-1/2*y,-z)'
_symmetry_space_group_name_H-M   'C 1'
_cell_angle_alpha                90
_cell_angle_beta                 90
_cell_angle_gamma                90
_cell_formula_units_Z            8
_cell_length_a                   6.895
_cell_length_b                   11.9536
_cell_length_c                   34.518
_cell_volume                     2844.976
_citation_journal_id_ASTM        ACBCAR
_cod_data_source_file            Koto_ACBCAR_1975_98.cif
_cod_data_source_block           Fe11S12
_cod_original_sg_symbol_Hall     'C -2yc '
_cod_original_sg_symbol_H-M      'C 1 c 1 '
_cod_database_code               2106703
loop_
_symmetry_equiv_pos_as_xyz
x,y,z
x+1/2,y+1/2,z
loop_
_atom_site_label
_atom_site_type_symbol
_atom_site_fract_x
_atom_site_fract_y
_atom_site_fract_z
_atom_site_occupancy
_atom_site_U_iso_or_equiv
Fe5 Fe+2 0.875 0.5 0.0833 1 0.0
S9 S-2 0.375 0.3333 0.2083 1 0.0
S10 S-2 0.625 -0.0833 -0.2083 1 0.0
S4 S-2 0.625 0.0833 -0.125 1 0.0
S12 S-2 0.125 -0.0833 0.625 1 0.0
Fe7 Fe+2 0.375 0.5 0 1 0.0
S11 S-2 0.375 0.3333 0.375 1 0.0
S2 S-2 0.625 0.0833 0.0417 1 0.0
S1 S-2 0.375 0.1667 -0.0417 1 0.0
Fe12 Fe+2 0.875 0.5 0.1667 1 0.0
S8 S-2 0.625 -0.0833 -0.0417 1 0.0
Fe3 Fe+2 0.375 0.5 0.0833 1 0.0
Fe11 Fe+2 0.625 0.25 0.1667 1 0.0
Fe9 Fe+2 0.875 0.5 0 1 0.0
Fe8 Fe+2 0.625 0.25 0 1 0.0
S5 S-2 0.375 0.1667 0.2917 1 0.0
Fe2 Fe+2 0.125 0.25 0.1667 0.5 0.0
S6 S-2 0.625 0.0833 -0.2917 1 0.0
Fe10 Fe+2 0.375 0.5 0.1667 1 0.0
Fe6 Fe+2 0.125 0.25 0 1 0.0
Fe4 Fe+2 0.625 0.25 0.0833 1 0.0
S3 S-2 0.375 0.1667 0.125 1 0.0
S7 S-2 0.375 0.3333 0.0417 1 0.0
Fe1 Fe+2 0.125 0.25 0.0833 0.5 0.0
