#------------------------------------------------------------------------------
#$Date: 2015-07-13 02:51:01 +0300 (Mon, 13 Jul 2015) $
#$Revision: 148729 $
#$URL: svn://www.crystallography.net/cod/cif/2/10/62/2106289.cif $
#------------------------------------------------------------------------------
#
# This file is available in the Crystallography Open Database (COD),
# http://www.crystallography.net/. The original data for this entry
# were provided by IUCr Journals, http://journals.iucr.org/.
#
# The file may be used within the scientific community so long as
# proper attribution is given to the journal article from which the
# data were obtained.
#
data_2106289
loop_
_publ_author_name
'Cromer, D.T.'
'Larson, A.C.'
_publ_section_title
;
 The crystal structure of Pu31 Pt20 and Pu31 Rh20
;
_journal_name_full               'Acta Crystallographica B (24,1968-38,1982)'
_journal_page_first              2620
_journal_page_last               2627
_journal_volume                  33
_journal_year                    1977
_chemical_formula_sum            'Pu31 Rh20'
_chemical_name_systematic        'Pu31 Rh20'
_space_group_IT_number           140
_symmetry_space_group_name_Hall  '-I 4 2c'
_symmetry_space_group_name_H-M   'I 4/m c m'
_cell_angle_alpha                90
_cell_angle_beta                 90
_cell_angle_gamma                90
_cell_formula_units_Z            4
_cell_length_a                   11.076
_cell_length_b                   11.076
_cell_length_c                   36.933
_cell_volume                     4530.858
_citation_journal_id_ASTM        ACBCAR
_cod_data_source_file            Cromer_ACBCAR_1977_594.cif
_cod_data_source_block           Pu31Rh20
_cod_database_code               2106289
loop_
_symmetry_equiv_pos_as_xyz
x,y,z
-y,x,z
-x,-y,z
y,-x,z
x,-y,-z+1/2
y,x,-z+1/2
-x,y,-z+1/2
-y,-x,-z+1/2
-x,-y,-z
y,-x,-z
x,y,-z
-y,x,-z
-x,y,z-1/2
-y,-x,z-1/2
x,-y,z-1/2
y,x,z-1/2
x+1/2,y+1/2,z+1/2
-y+1/2,x+1/2,z+1/2
-x+1/2,-y+1/2,z+1/2
y+1/2,-x+1/2,z+1/2
x+1/2,-y+1/2,-z+1
y+1/2,x+1/2,-z+1
-x+1/2,y+1/2,-z+1
-y+1/2,-x+1/2,-z+1
-x+1/2,-y+1/2,-z+1/2
y+1/2,-x+1/2,-z+1/2
x+1/2,y+1/2,-z+1/2
-y+1/2,x+1/2,-z+1/2
-x+1/2,y+1/2,z
-y+1/2,-x+1/2,z
x+1/2,-y+1/2,z
y+1/2,x+1/2,z
loop_
_atom_site_label
_atom_site_type_symbol
_atom_site_fract_x
_atom_site_fract_y
_atom_site_fract_z
_atom_site_occupancy
_atom_site_U_iso_or_equiv
Rh2 Rh 0 0 0.25 1 0.0
Rh5 Rh 0.4035 0.9035 0 1 0.0
Rh8 Rh 0.1536 0.6536 0.2109 1 0.0
Pu7 Pu 0.2819 0.4125 0.2114 1 0.0
Pu2 Pu 0 0.5 0.0756 1 0.0
Rh3 Rh 0 0 0.094 1 0.0
Pu5 Pu 0.2947 0.4299 0.05 1 0.0
Pu1 Pu 0 0.5 0.25 1 0.0
Pu4 Pu 0.1586 0.6586 0 1 0.0
Rh4 Rh 0 0 0.1734 1 0.0
Pu3 Pu 0 0.5 0.1656 1 0.0
Rh1 Rh 0 0 0 1 0.0
Rh7 Rh 0.3417 0.8417 0.1269 1 0.0
Rh6 Rh 0.1812 0.6812 0.0726 1 0.0
Pu6 Pu 0.2855 0.5774 0.1346 1 0.0
