#------------------------------------------------------------------------------
#$Date: 2015-07-12 00:14:10 +0300 (Sun, 12 Jul 2015) $
#$Revision: 146529 $
#$URL: svn://www.crystallography.net/cod/cif/2/10/61/2106171.cif $
#------------------------------------------------------------------------------
#
# This file is available in the Crystallography Open Database (COD),
# http://www.crystallography.net/. The original data for this entry
# were provided by IUCr Journals, http://journals.iucr.org/.
#
# The file may be used within the scientific community so long as
# proper attribution is given to the journal article from which the
# data were obtained.
#
data_2106171
loop_
_publ_author_name
'van Reuth, E.C.'
'Waterstrat, R.M.'
_publ_section_title
;
 Atomic ordering in binary A15-type phases
;
_journal_name_full               'Acta Crystallographica B (24,1968-38,1982)'
_journal_page_first              186
_journal_page_last               196
_journal_volume                  24
_journal_year                    1968
_chemical_formula_sum            'Cr3.16 Pt0.84'
_chemical_name_systematic        'Cr3 (Cr0.16 Pt0.84)'
_space_group_IT_number           223
_symmetry_space_group_name_Hall  '-P 4n 2 3'
_symmetry_space_group_name_H-M   'P m -3 n'
_cell_angle_alpha                90
_cell_angle_beta                 90
_cell_angle_gamma                90
_cell_formula_units_Z            2
_cell_length_a                   4.7058
_cell_length_b                   4.7058
_cell_length_c                   4.7058
_cell_volume                     104.208
_citation_journal_id_ASTM        ACBCAR
_cod_data_source_file            vanReuth_ACBCAR_1968_1362.cif
_cod_data_source_block           Cr3.16Pt0.84
_cod_original_cell_volume        104.2078
_cod_database_code               2106171
loop_
_symmetry_equiv_pos_as_xyz
x,y,z
-y+1/2,x+1/2,z+1/2
-x,-y,z
y+1/2,-x+1/2,z+1/2
x,-y,-z
y+1/2,x+1/2,-z+1/2
-x,y,-z
-y+1/2,-x+1/2,-z+1/2
z,x,y
-x+1/2,z+1/2,y+1/2
-z,-x,y
x+1/2,-z+1/2,y+1/2
z,-x,-y
x+1/2,z+1/2,-y+1/2
-z,x,-y
-x+1/2,-z+1/2,-y+1/2
y,z,x
y,-z,-x
z+1/2,y+1/2,-x+1/2
-y,z,-x
-z+1/2,-y+1/2,-x+1/2
-y,-z,x
z+1/2,-y+1/2,x+1/2
-z+1/2,y+1/2,x+1/2
-x,-y,-z
y-1/2,-x-1/2,-z-1/2
x,y,-z
-y-1/2,x-1/2,-z-1/2
-x,y,z
-y-1/2,-x-1/2,z-1/2
x,-y,z
y-1/2,x-1/2,z-1/2
-z,-x,-y
x-1/2,-z-1/2,-y-1/2
z,x,-y
-x-1/2,z-1/2,-y-1/2
-z,x,y
-x-1/2,-z-1/2,y-1/2
z,-x,y
x-1/2,z-1/2,y-1/2
-y,-z,-x
-y,z,x
-z-1/2,-y-1/2,x-1/2
y,-z,x
z-1/2,y-1/2,x-1/2
y,z,-x
-z-1/2,y-1/2,-x-1/2
z-1/2,-y-1/2,-x-1/2
loop_
_atom_site_label
_atom_site_type_symbol
_atom_site_fract_x
_atom_site_fract_y
_atom_site_fract_z
_atom_site_occupancy
_atom_site_U_iso_or_equiv
Cr2 Cr 0 0 0 0.16 0.0
Pt1 Pt 0 0 0 0.84 0.0
Cr1 Cr 0.25 0 0.5 1 0.0
