#------------------------------------------------------------------------------
#$Date: 2016-02-13 21:28:24 +0200 (Sat, 13 Feb 2016) $
#$Revision: 176429 $
#$URL: svn://www.crystallography.net/cod/cif/2/10/67/2106741.cif $
#------------------------------------------------------------------------------
#
# This file is available in the Crystallography Open Database (COD),
# http://www.crystallography.net/. The original data for this entry
# were provided by IUCr Journals, http://journals.iucr.org/.
#
# The file may be used within the scientific community so long as
# proper attribution is given to the journal article from which the
# data were obtained.
#
data_2106741
loop_
_publ_author_name
'Waterstrat, R.M.'
'Flack, H.D.'
'Yvon, K.'
'Parthe, E.'
_publ_section_title
;
 Refinement of Nb3 Si Nb3 As
;
_journal_name_full               'Acta Crystallographica B (24,1968-38,1982)'
_journal_page_first              2765
_journal_page_last               2769
_journal_volume                  31
_journal_year                    1975
_chemical_formula_sum            'Nb3 Si'
_chemical_name_systematic        'Nb3 Si'
_space_group_IT_number           86
_symmetry_space_group_name_Hall  '-P 4bc'
_symmetry_space_group_name_H-M   'P 42/n :2'
_cell_angle_alpha                90
_cell_angle_beta                 90
_cell_angle_gamma                90
_cell_formula_units_Z            8
_cell_length_a                   10.224
_cell_length_b                   10.224
_cell_length_c                   5.189
_cell_volume                     542.407
_citation_journal_id_ASTM        ACBCAR
_cod_data_source_file            Waterstrat_ACBCAR_1975_99.cif
_cod_data_source_block           Nb3Si1
_cod_original_cell_volume        542.4071
_cod_original_formula_sum        'Nb3 Si1'
_cod_database_code               2106741
loop_
_symmetry_equiv_pos_as_xyz
x,y,z
-y,x+1/2,z+1/2
-x+1/2,-y+1/2,z
y+1/2,-x,z+1/2
-x,-y,-z
y,-x-1/2,-z-1/2
x-1/2,y-1/2,-z
-y-1/2,x,-z-1/2
loop_
_atom_site_label
_atom_site_type_symbol
_atom_site_fract_x
_atom_site_fract_y
_atom_site_fract_z
_atom_site_occupancy
_atom_site_U_iso_or_equiv
Nb2 Nb 0.1043 0.2665 0.523 1 0.0
Nb1 Nb 0.1653 0.6525 0.7185 1 0.0
Nb3 Nb 0.0603 0.5364 0.237 1 0.0
Si1 Si 0.0442 0.2782 0.0293 1 0.0
