#------------------------------------------------------------------------------
#$Date: 2015-07-08 20:36:17 +0300 (Wed, 08 Jul 2015) $
#$Revision: 141266 $
#$URL: svn://www.crystallography.net/cod/cif/2/10/60/2106086.cif $
#------------------------------------------------------------------------------
#
# This file is available in the Crystallography Open Database (COD),
# http://www.crystallography.net/. The original data for this entry
# were provided by IUCr Journals, http://journals.iucr.org/.
#
# The file may be used within the scientific community so long as
# proper attribution is given to the journal article from which the
# data were obtained.
#
data_2106086
loop_
_publ_author_name
'Chabot, B.'
'Parthe, E.'
'Cenzual, K.'
_publ_section_title
;
 Sc44 Os7 and Sc44 Ir7 with the Mg44 Rh7 structure type
;
_journal_name_full               'Acta Crystallographica B (24,1968-38,1982)'
_journal_page_first              2202
_journal_page_last               2205
_journal_volume                  36
_journal_year                    1980
_chemical_formula_sum            'Os7 Sc44'
_chemical_name_systematic        'Os7 Sc44'
_space_group_IT_number           216
_symmetry_space_group_name_Hall  'F -4 2 3'
_symmetry_space_group_name_H-M   'F -4 3 m'
_cell_angle_alpha                90
_cell_angle_beta                 90
_cell_angle_gamma                90
_cell_formula_units_Z            8
_cell_length_a                   20.771
_cell_length_b                   20.771
_cell_length_c                   20.771
_cell_volume                     8961.325
_citation_journal_id_ASTM        ACBCAR
_cod_data_source_file            Chabot_ACBCAR_1980_1657.cif
_cod_data_source_block           Os7Sc44
_cod_original_cell_volume        8961.324
_cod_database_code               2106086
loop_
_symmetry_equiv_pos_as_xyz
x,y,z
y,-x,-z
-x,-y,z
-y,x,-z
x,-y,-z
-y,-x,z
-x,y,-z
y,x,z
z,x,y
x,-z,-y
-z,-x,y
-x,z,-y
z,-x,-y
-x,-z,y
-z,x,-y
x,z,y
y,z,x
y,-z,-x
-z,-y,x
-y,z,-x
z,y,x
-y,-z,x
-z,y,-x
z,-y,-x
x,y+1/2,z+1/2
y,-x+1/2,-z+1/2
-x,-y+1/2,z+1/2
-y,x+1/2,-z+1/2
x,-y+1/2,-z+1/2
-y,-x+1/2,z+1/2
-x,y+1/2,-z+1/2
y,x+1/2,z+1/2
z,x+1/2,y+1/2
x,-z+1/2,-y+1/2
-z,-x+1/2,y+1/2
-x,z+1/2,-y+1/2
z,-x+1/2,-y+1/2
-x,-z+1/2,y+1/2
-z,x+1/2,-y+1/2
x,z+1/2,y+1/2
y,z+1/2,x+1/2
y,-z+1/2,-x+1/2
-z,-y+1/2,x+1/2
-y,z+1/2,-x+1/2
z,y+1/2,x+1/2
-y,-z+1/2,x+1/2
-z,y+1/2,-x+1/2
z,-y+1/2,-x+1/2
x+1/2,y,z+1/2
y+1/2,-x,-z+1/2
-x+1/2,-y,z+1/2
-y+1/2,x,-z+1/2
x+1/2,-y,-z+1/2
-y+1/2,-x,z+1/2
-x+1/2,y,-z+1/2
y+1/2,x,z+1/2
z+1/2,x,y+1/2
x+1/2,-z,-y+1/2
-z+1/2,-x,y+1/2
-x+1/2,z,-y+1/2
z+1/2,-x,-y+1/2
-x+1/2,-z,y+1/2
-z+1/2,x,-y+1/2
x+1/2,z,y+1/2
y+1/2,z,x+1/2
y+1/2,-z,-x+1/2
-z+1/2,-y,x+1/2
-y+1/2,z,-x+1/2
z+1/2,y,x+1/2
-y+1/2,-z,x+1/2
-z+1/2,y,-x+1/2
z+1/2,-y,-x+1/2
x+1/2,y+1/2,z
y+1/2,-x+1/2,-z
-x+1/2,-y+1/2,z
-y+1/2,x+1/2,-z
x+1/2,-y+1/2,-z
-y+1/2,-x+1/2,z
-x+1/2,y+1/2,-z
y+1/2,x+1/2,z
z+1/2,x+1/2,y
x+1/2,-z+1/2,-y
-z+1/2,-x+1/2,y
-x+1/2,z+1/2,-y
z+1/2,-x+1/2,-y
-x+1/2,-z+1/2,y
-z+1/2,x+1/2,-y
x+1/2,z+1/2,y
y+1/2,z+1/2,x
y+1/2,-z+1/2,-x
-z+1/2,-y+1/2,x
-y+1/2,z+1/2,-x
z+1/2,y+1/2,x
-y+1/2,-z+1/2,x
-z+1/2,y+1/2,-x
z+1/2,-y+1/2,-x
loop_
_atom_site_label
_atom_site_type_symbol
_atom_site_fract_x
_atom_site_fract_y
_atom_site_fract_z
_atom_site_occupancy
_atom_site_U_iso_or_equiv
Os3 Os 0.4085 0.25 0.25 1 0.0
Os2 Os 0.6503 0.6503 0.6503 1 0.0
Sc2 Sc 0.3087 0.3087 0.3087 1 0.0
Sc1 Sc 0.057 0.057 0.057 1 0.0
Sc4 Sc 0.4416 0.4416 0.4416 1 0.0
Sc8 Sc 0.41 0.41 0.2833 1 0.0
Sc11 Sc 0.8931 0.8931 0.7857 1 0.0
Sc5 Sc 0.189 0 0 1 0.0
Os1 Os 0.9194 0.9194 0.9194 1 0.0
Sc9 Sc 0.5554 0.5554 0.6634 1 0.0
Sc3 Sc 0.1612 0.1612 0.1612 1 0.0
Sc6 Sc 0.8564 0.25 0.25 1 0.0
Sc10 Sc 0.6978 0.6978 0.5158 1 0.0
Sc7 Sc 0.161 0.161 0.0209 1 0.0
