#------------------------------------------------------------------------------
#$Date: 2015-07-12 00:13:54 +0300 (Sun, 12 Jul 2015) $
#$Revision: 146527 $
#$URL: svn://www.crystallography.net/cod/cif/2/10/61/2106169.cif $
#------------------------------------------------------------------------------
#
# This file is available in the Crystallography Open Database (COD),
# http://www.crystallography.net/. The original data for this entry
# were provided by IUCr Journals, http://journals.iucr.org/.
#
# The file may be used within the scientific community so long as
# proper attribution is given to the journal article from which the
# data were obtained.
#
data_2106169
loop_
_publ_author_name
'van Reuth, E.C.'
'Waterstrat, R.M.'
_publ_section_title
;
 Atomic ordering in binary A15-type phases
;
_journal_name_full               'Acta Crystallographica B (24,1968-38,1982)'
_journal_page_first              186
_journal_page_last               196
_journal_volume                  24
_journal_year                    1968
_chemical_formula_sum            'Cr2.919 Ir1.081'
_chemical_name_systematic        'Cr2.88 Ir1.12'
_space_group_IT_number           223
_symmetry_space_group_name_Hall  '-P 4n 2 3'
_symmetry_space_group_name_H-M   'P m -3 n'
_cell_angle_alpha                90
_cell_angle_beta                 90
_cell_angle_gamma                90
_cell_formula_units_Z            2
_cell_length_a                   4.681
_cell_length_b                   4.681
_cell_length_c                   4.681
_cell_volume                     102.569
_citation_journal_id_ASTM        ACBCAR
_cod_data_source_file            vanReuth_ACBCAR_1968_1306.cif
_cod_data_source_block           Cr2.919Ir1.081
_cod_database_code               2106169
loop_
_symmetry_equiv_pos_as_xyz
x,y,z
-y+1/2,x+1/2,z+1/2
-x,-y,z
y+1/2,-x+1/2,z+1/2
x,-y,-z
y+1/2,x+1/2,-z+1/2
-x,y,-z
-y+1/2,-x+1/2,-z+1/2
z,x,y
-x+1/2,z+1/2,y+1/2
-z,-x,y
x+1/2,-z+1/2,y+1/2
z,-x,-y
x+1/2,z+1/2,-y+1/2
-z,x,-y
-x+1/2,-z+1/2,-y+1/2
y,z,x
y,-z,-x
z+1/2,y+1/2,-x+1/2
-y,z,-x
-z+1/2,-y+1/2,-x+1/2
-y,-z,x
z+1/2,-y+1/2,x+1/2
-z+1/2,y+1/2,x+1/2
-x,-y,-z
y-1/2,-x-1/2,-z-1/2
x,y,-z
-y-1/2,x-1/2,-z-1/2
-x,y,z
-y-1/2,-x-1/2,z-1/2
x,-y,z
y-1/2,x-1/2,z-1/2
-z,-x,-y
x-1/2,-z-1/2,-y-1/2
z,x,-y
-x-1/2,z-1/2,-y-1/2
-z,x,y
-x-1/2,-z-1/2,y-1/2
z,-x,y
x-1/2,z-1/2,y-1/2
-y,-z,-x
-y,z,x
-z-1/2,-y-1/2,x-1/2
y,-z,x
z-1/2,y-1/2,x-1/2
y,z,-x
-z-1/2,y-1/2,-x-1/2
z-1/2,-y-1/2,-x-1/2
loop_
_atom_site_label
_atom_site_type_symbol
_atom_site_fract_x
_atom_site_fract_y
_atom_site_fract_z
_atom_site_occupancy
_atom_site_U_iso_or_equiv
Ir1 Ir 0.25 0 0.5 0.027 0.0
Cr1 Cr 0.25 0 0.5 0.973 0.0
Ir2 Ir 0 0 0 1 0.0
