#------------------------------------------------------------------------------
#$Date: 2016-02-13 21:28:24 +0200 (Sat, 13 Feb 2016) $
#$Revision: 176429 $
#$URL: svn://www.crystallography.net/cod/cif/2/10/62/2106205.cif $
#------------------------------------------------------------------------------
#
# This file is available in the Crystallography Open Database (COD),
# http://www.crystallography.net/. The original data for this entry
# were provided by IUCr Journals, http://journals.iucr.org/.
#
# The file may be used within the scientific community so long as
# proper attribution is given to the journal article from which the
# data were obtained.
#
data_2106205
loop_
_publ_author_name
'Gulzari, L.'
'Chadha, G.K.'
'Trigunayat, G.C.'
_publ_section_title
;
 Crystal structures of six new polytypes of cadmium iodide
;
_journal_name_full               'Acta Crystallographica B (24,1968-38,1982)'
_journal_page_first              2293
_journal_page_last               2298
_journal_volume                  27
_journal_year                    1971
_chemical_formula_sum            'Cd I2'
_chemical_name_systematic        'Cd I2'
_space_group_IT_number           156
_symmetry_space_group_name_Hall  'P 3 -2"'
_symmetry_space_group_name_H-M   'P 3 m 1'
_cell_angle_alpha                90
_cell_angle_beta                 90
_cell_angle_gamma                120
_cell_formula_units_Z            10
_cell_length_a                   4.24
_cell_length_b                   4.24
_cell_length_c                   68.35
_cell_volume                     1064.145
_citation_journal_id_ASTM        ACBCAR
_cod_data_source_file            Gulzari_ACBCAR_1971_385.cif
_cod_data_source_block           Cd1I2
_cod_original_formula_sum        'Cd1 I2'
_cod_database_code               2106205
loop_
_symmetry_equiv_pos_as_xyz
x,y,z
-y,x-y,z
-x+y,-x,z
-y,-x,z
x,x-y,z
-x+y,y,z
loop_
_atom_site_label
_atom_site_type_symbol
_atom_site_fract_x
_atom_site_fract_y
_atom_site_fract_z
_atom_site_occupancy
_atom_site_U_iso_or_equiv
I3 I-1 0 0 0.3 1 0.0
Cd9 Cd+2 0.3333 0.6667 0.825 1 0.0
Cd3 Cd+2 0.3333 0.6667 0.225 1 0.0
I14 I-1 0.6667 0.3333 0.45 1 0.0
I18 I-1 0.6667 0.3333 0.85 1 0.0
Cd2 Cd+2 0.3333 0.6667 0.025 1 0.0
I20 I-1 0.3333 0.6667 0.1 1 0.0
I16 I-1 0.6667 0.3333 0.65 1 0.0
I12 I-1 0.6667 0.3333 0.25 1 0.0
I10 I-1 0.6667 0.3333 0.05 1 0.0
I11 I-1 0.6667 0.3333 0.15 1 0.0
Cd6 Cd+2 0.3333 0.6667 0.525 1 0.0
I13 I-1 0.6667 0.3333 0.35 1 0.0
I7 I-1 0 0 0.7 1 0.0
I2 I-1 0 0 0.2 1 0.0
I9 I-1 0 0 0.9 1 0.0
I15 I-1 0.6667 0.3333 0.55 1 0.0
I6 I-1 0 0 0.6 1 0.0
Cd7 Cd+2 0.3333 0.6667 0.625 1 0.0
I5 I-1 0 0 0.5 1 0.0
I17 I-1 0.6667 0.3333 0.75 1 0.0
Cd10 Cd+2 0.3333 0.6667 0.925 1 0.0
Cd1 Cd+2 0 0 0.125 1 0.0
Cd5 Cd+2 0.3333 0.6667 0.425 1 0.0
I19 I-1 0.6667 0.3333 0.95 1 0.0
I4 I-1 0 0 0.4 1 0.0
Cd8 Cd+2 0.3333 0.6667 0.725 1 0.0
I1 I-1 0 0 0 1 0.0
Cd4 Cd+2 0.3333 0.6667 0.325 1 0.0
I8 I-1 0 0 0.8 1 0.0
