#------------------------------------------------------------------------------
#$Date: 2016-02-13 21:28:24 +0200 (Sat, 13 Feb 2016) $
#$Revision: 176429 $
#$URL: svn://www.crystallography.net/cod/cif/2/10/61/2106139.cif $
#------------------------------------------------------------------------------
#
# This file is available in the Crystallography Open Database (COD),
# http://www.crystallography.net/. The original data for this entry
# were provided by IUCr Journals, http://journals.iucr.org/.
#
# The file may be used within the scientific community so long as
# proper attribution is given to the journal article from which the
# data were obtained.
#
data_2106139
loop_
_publ_author_name
'Buschow, K.H.J.'
'van der Goot, A.S.'
_publ_section_title
;
 Compositon abd crystal structure of hexagonal Cu-rich rare earth-copper
 compounds
;
_journal_name_full               'Acta Crystallographica B (24,1968-38,1982)'
_journal_page_first              1085
_journal_page_last               1088
_journal_volume                  27
_journal_year                    1971
_chemical_formula_sum            'Cu5 Y'
_chemical_name_systematic        'Cu5 Y'
_space_group_IT_number           191
_symmetry_space_group_name_Hall  '-P 6 2'
_symmetry_space_group_name_H-M   'P 6/m m m'
_cell_angle_alpha                90
_cell_angle_beta                 90
_cell_angle_gamma                120
_cell_formula_units_Z            1
_cell_length_a                   5.005
_cell_length_b                   5.005
_cell_length_c                   4.097
_cell_volume                     88.880
_citation_journal_id_ASTM        ACBCAR
_cod_data_source_file            Buschow_ACBCAR_1971_1645.cif
_cod_data_source_block           Cu5Y1
_cod_original_cell_volume        88.88015
_cod_original_formula_sum        'Cu5 Y1'
_cod_database_code               2106139
loop_
_symmetry_equiv_pos_as_xyz
x,y,z
x-y,x,z
-y,x-y,z
-x,-y,z
-x+y,-x,z
y,-x+y,z
-y,-x,-z
x-y,-y,-z
x,x-y,-z
y,x,-z
-x+y,y,-z
-x,-x+y,-z
-x,-y,-z
-x+y,-x,-z
y,-x+y,-z
x,y,-z
x-y,x,-z
-y,x-y,-z
y,x,z
-x+y,y,z
-x,-x+y,z
-y,-x,z
x-y,-y,z
x,x-y,z
loop_
_atom_site_label
_atom_site_type_symbol
_atom_site_fract_x
_atom_site_fract_y
_atom_site_fract_z
_atom_site_occupancy
_atom_site_U_iso_or_equiv
Cu2 Cu 0.5 0 0.5 1 0.0
Cu1 Cu 0.3333 0.6667 0 1 0.0
Y1 Y 0 0 0 1 0.0
