#------------------------------------------------------------------------------
#$Date: 2015-10-10 14:37:26 +0300 (Sat, 10 Oct 2015) $
#$Revision: 165502 $
#$URL: svn://www.crystallography.net/cod/cif/2/10/69/2106975.cif $
#------------------------------------------------------------------------------
#
# This file is available in the Crystallography Open Database (COD),
# http://www.crystallography.net/. The original data for this entry
# were provided by IUCr Journals, http://journals.iucr.org/.
#
# The file may be used within the scientific community so long as
# proper attribution is given to the journal article from which the
# data were obtained.
#
data_2106975
loop_
_publ_author_name
'Hansen, D.A.'
'Chang, L.J.'
_publ_section_title
;
 Crystal Structure of Li2 Sn5
;
_journal_name_full               'Acta Crystallographica B (24,1968-38,1982)'
_journal_page_first              2392
_journal_page_last               2395
_journal_volume                  25
_journal_year                    1969
_chemical_formula_sum            'Li2 Sn5'
_chemical_name_systematic        'Li2 Sn5'
_space_group_IT_number           127
_symmetry_space_group_name_Hall  '-P 4 2ab'
_symmetry_space_group_name_H-M   'P 4/m b m'
_cell_angle_alpha                90
_cell_angle_beta                 90
_cell_angle_gamma                90
_cell_formula_units_Z            2
_cell_length_a                   10.274
_cell_length_b                   10.274
_cell_length_c                   3.125
_cell_volume                     329.860
_citation_journal_id_ASTM        ACBCAR
_cod_data_source_file            Hansen_ACBCAR_1969_1149.cif
_cod_data_source_block           Li2Sn5
_cod_original_cell_volume        329.8596
_cod_database_code               2106975
loop_
_symmetry_equiv_pos_as_xyz
x,y,z
-y,x,z
-x,-y,z
y,-x,z
x+1/2,-y+1/2,-z
y+1/2,x+1/2,-z
-x+1/2,y+1/2,-z
-y+1/2,-x+1/2,-z
-x,-y,-z
y,-x,-z
x,y,-z
-y,x,-z
-x-1/2,y-1/2,z
-y-1/2,-x-1/2,z
x-1/2,-y-1/2,z
y-1/2,x-1/2,z
loop_
_atom_site_label
_atom_site_type_symbol
_atom_site_fract_x
_atom_site_fract_y
_atom_site_fract_z
_atom_site_occupancy
_atom_site_U_iso_or_equiv
Sn1 Sn 0.2954 0.4324 0 1 0.0
Li1 Li 0.172 0.672 0.5 1 0.0
Sn2 Sn 0 0.5 0 1 0.0
