#------------------------------------------------------------------------------
#$Date: 2016-03-23 23:08:28 +0200 (Wed, 23 Mar 2016) $
#$Revision: 179502 $
#$URL: svn://www.crystallography.net/cod/cif/4/33/99/4339992.cif $
#------------------------------------------------------------------------------
#
# This file is available in the Crystallography Open Database (COD),
# http://www.crystallography.net/
#
# All data on this site have been placed in the public domain by the
# contributors.
#
data_4339992
loop_
_publ_author_name
'Richtera, Lukas'
'Jancik, Vojtech'
'Mart\'inez-Otero, Diego'
'Pokluda, Ales'
'Zak, Zdirad'
'Taraba, Jan'
'Touzin, Jiri'
_publ_section_title
;
 Taming the Oxidative Power of SeO3 in 1,4-Dioxane, Isolation of Two New
 Isomers of Mixed-Valence Selenium Oxides, and Two Unprecedented Cyclic
 Esters of Selenic Acid.
;
_journal_issue                   13
_journal_name_full               'Inorganic chemistry'
_journal_page_first              6569
_journal_page_last               6577
_journal_paper_doi               10.1021/ic500137z
_journal_volume                  53
_journal_year                    2014
_chemical_formula_moiety         'O9 Se3'
_chemical_formula_sum            'O9 Se3'
_chemical_formula_weight         380.88
_chemical_name_systematic
;
 ?
;
_space_group_crystal_system      monoclinic
_space_group_IT_number           14
_space_group_name_Hall           '-P 2ybc'
_space_group_name_H-M_alt        'P 1 21/c 1'
_symmetry_space_group_name_Hall  '-P 2ybc'
_symmetry_space_group_name_H-M   'P 1 21/c 1'
_atom_sites_solution_primary     direct
_atom_sites_solution_secondary   difmap
_audit_creation_method           SHELXL-2013
_cell_angle_alpha                90
_cell_angle_beta                 109.64(3)
_cell_angle_gamma                90
_cell_formula_units_Z            4
_cell_length_a                   7.008(2)
_cell_length_b                   20.213(6)
_cell_length_c                   5.462(2)
_cell_measurement_reflns_used    30
_cell_measurement_temperature    153(2)
_cell_measurement_theta_max      25.4
_cell_measurement_theta_min      3.7
_cell_volume                     728.7(4)
_computing_cell_refinement       'KM-4 software'
_computing_data_collection       'KM-4 software'
_computing_data_reduction        'KM-4 software'
_computing_molecular_graphics    'Bruker SHELXTL V5.1'
_computing_publication_material  'Bruker SHELXTL V5.1'
_computing_structure_refinement  'SHELXL-2013 (Sheldrick, 2013)'
_computing_structure_solution    'SHELXS-97 (Sheldrick, 1990)'
_diffrn_ambient_temperature      153(2)
_diffrn_measured_fraction_theta_full 0.946
_diffrn_measured_fraction_theta_max 0.958
_diffrn_measurement_device_type  'KUMA KM-4 point detector'
_diffrn_measurement_method       omega-scan
_diffrn_radiation_monochromator  graphite
_diffrn_radiation_source         'fine-focus sealed tube'
_diffrn_radiation_type           MoK\a
_diffrn_radiation_wavelength     0.71073
_diffrn_reflns_av_R_equivalents  0.0818
_diffrn_reflns_av_unetI/netI     0.0542
_diffrn_reflns_Laue_measured_fraction_full 0.946
_diffrn_reflns_Laue_measured_fraction_max 0.958
_diffrn_reflns_limit_h_max       9
_diffrn_reflns_limit_h_min       -8
_diffrn_reflns_limit_k_max       26
_diffrn_reflns_limit_k_min       0
_diffrn_reflns_limit_l_max       0
_diffrn_reflns_limit_l_min       -7
_diffrn_reflns_number            1764
_diffrn_reflns_point_group_measured_fraction_full 0.946
_diffrn_reflns_point_group_measured_fraction_max 0.958
_diffrn_reflns_theta_full        25.242
_diffrn_reflns_theta_max         27.500
_diffrn_reflns_theta_min         2.015
_diffrn_standards_decay_%        none
_diffrn_standards_interval_count 'after every 150 reflections'
_diffrn_standards_number         3
_exptl_absorpt_coefficient_mu    15.163
_exptl_absorpt_correction_T_max  0.0924
_exptl_absorpt_correction_T_min  0.0645
_exptl_absorpt_correction_type   psi-scan
_exptl_absorpt_process_details
;
Bruker SHELXTL V5.1, XEMP program
;
_exptl_crystal_colour            colourless
_exptl_crystal_density_diffrn    3.472
_exptl_crystal_description       prism
_exptl_crystal_F_000             696
_exptl_crystal_size_max          0.400
_exptl_crystal_size_mid          0.400
_exptl_crystal_size_min          0.300
_refine_diff_density_max         1.823
_refine_diff_density_min         -2.263
_refine_diff_density_rms         0.347
_refine_ls_extinction_coef       0.0121(17)
_refine_ls_extinction_expression Fc^*^=kFc[1+0.001xFc^2^\l^3^/sin(2\q)]^-1/4^
_refine_ls_extinction_method     SHELXL
_refine_ls_goodness_of_fit_ref   1.061
_refine_ls_hydrogen_treatment    undef
_refine_ls_matrix_type           full
_refine_ls_number_parameters     110
_refine_ls_number_reflns         1596
_refine_ls_number_restraints     0
_refine_ls_restrained_S_all      1.061
_refine_ls_R_factor_all          0.0756
_refine_ls_R_factor_gt           0.0512
_refine_ls_shift/su_max          0.001
_refine_ls_shift/su_mean         0.000
_refine_ls_structure_factor_coef Fsqd
_refine_ls_weighting_details
;
 w=1/[\s^2^(Fo^2^)+(0.1036P)^2^+0.1258P]
 where P=(Fo^2^+2Fc^2^)/3
;
_refine_ls_weighting_scheme      calc
_refine_ls_wR_factor_gt          0.1309
_refine_ls_wR_factor_ref         0.1443
_reflns_Friedel_coverage         0.000
_reflns_number_gt                1225
_reflns_number_total             1596
_reflns_threshold_expression     'I > 2\s(I)'
_cod_data_source_file            ic500137z_si_002.cif
_cod_data_source_block           (SEO3)3
_cod_depositor_comments
'Adding full bibliography for 4339987--4339996.cif.'
_cod_database_code               4339992
#BEGIN Tags that were not found in dictionaries:
_shelx_space_group_comment
;
The symmetry employed for this shelxl refinement is uniquely defined
by the following loop, which should always be used as a source of
symmetry information in preference to the above space-group names.
They are only intended as comments.
;
_shelx_estimated_absorpt_t_min   0.065
_shelx_estimated_absorpt_t_max   0.092
_shelxl_version_number           2013-2
_shelx_res_file
;
TITL seo3a in P2(1)/c
CELL 0.71073   7.008  20.213   5.462  90.00 109.64  90.00
ZERR   4.00   0.002   0.006   0.002   0.00   0.03   0.00
LATT  1
SYMM -X, .5+Y, .5-Z
SFAC O SE
UNIT 36 12
L.S. 4
TEMP -120
SIZE 0.4 0.4 0.3

BOND
FMAP 2
PLAN 20
LIST 4
acta
OMIT -2 55
OMIT 1 1 3
OMIT 0 1 4
OMIT -6 2 3
OMIT -1 7 2
OMIT -3 2 1
OMIT -1 0 2
OMIT 0 10 0

WGHT    0.103600    0.125800
EXTI    0.012097
FVAR       0.39462
SE1   2    0.263333    0.547945    0.091498    11.00000    0.02332    0.01097 =
         0.02499   -0.00188    0.00433    0.00106
SE2   2    0.508692    0.657699    0.470054    11.00000    0.01847    0.01173 =
         0.02754   -0.00162    0.00599   -0.00031
SE3   2    0.039038    0.664199    0.259382    11.00000    0.01891    0.01489 =
         0.02538    0.00146    0.00783    0.00267
O1    1    0.485962    0.579053    0.326730    11.00000    0.02488    0.01164 =
         0.04303   -0.01346    0.00303    0.00222
O2    1    0.273150    0.659586    0.520836    11.00000    0.02088    0.03101 =
         0.02550    0.00174    0.00715   -0.00012
O3    1    0.119646    0.622423    0.021178    11.00000    0.02241    0.02377 =
         0.02600    0.00059    0.00755    0.00474
O4    1    0.308997    0.533811   -0.166607    11.00000    0.03948    0.02963 =
         0.03863   -0.00025    0.01534    0.01213
O5    1    0.172648    0.496503    0.240092    11.00000    0.03315    0.02237 =
         0.04073    0.00963    0.00968   -0.00470
O6    1    0.667832    0.649055    0.749208    11.00000    0.02532    0.02913 =
         0.03633   -0.00894   -0.00034    0.00538
O7    1    0.506550    0.711116    0.257461    11.00000    0.03099    0.02102 =
         0.05047    0.01436    0.01770    0.00007
O8    1   -0.108886    0.619554    0.348938    11.00000    0.02662    0.02649 =
         0.04006    0.00387    0.01537   -0.00225
O9    1   -0.003976    0.736770    0.152891    11.00000    0.04074    0.01635 =
         0.02744    0.00759    0.01370    0.01042
HKLF 4

REM  seo3a in P2(1)/c
REM R1 =  0.0512 for    1225 Fo > 4sig(Fo)  and  0.0756 for all    1596 data
REM    110 parameters refined using      0 restraints

END

WGHT      0.1036      0.1258

REM Highest difference peak  1.823,  deepest hole -2.263,  1-sigma level  0.347
Q1    1   0.5571  0.6634  0.6222  11.00000  0.05    1.82
Q2    1   0.2418  0.5503 -0.0789  11.00000  0.05    1.66
Q3    1   0.0549  0.6626  0.4450  11.00000  0.05    1.50
Q4    1   0.3459  0.6602  0.4066  11.00000  0.05    1.47
Q5    1   0.1862  0.6618  0.3567  11.00000  0.05    1.41
Q6    1   0.2684  0.5994  0.3946  11.00000  0.05    1.20
Q7    1   0.3492  0.6074  0.4271  11.00000  0.05    1.13
Q8    1   0.1851  0.7136  0.3809  11.00000  0.05    1.12
Q9    1   0.2932  0.5414  0.2351  11.00000  0.05    1.11
Q10   1   0.3982  0.5479  0.1732  11.00000  0.05    1.09
Q11   1  -0.0106  0.6711  0.0680  11.00000  0.05    1.07
Q12   1   0.4560  0.6010  0.1592  11.00000  0.05    1.02
Q13   1   0.4934  0.6683  0.3287  11.00000  0.05    0.99
Q14   1   0.4863  0.6618  0.4028  11.00000  0.05    0.97
Q15   1   0.4083  0.4966  0.1369  11.00000  0.05    0.95
Q16   1   0.3535  0.7119  0.4478  11.00000  0.05    0.93
Q17   1   0.1129  0.5005  0.0434  11.00000  0.05    0.90
Q18   1  -0.0900  0.6645  0.2279  11.00000  0.05    0.89
Q19   1  -0.0968  0.7200  0.2071  11.00000  0.05    0.86
Q20   1   0.0905  0.6218 -0.1373  11.00000  0.05    0.78
;
_shelx_res_checksum              7129
_shelx_hkl_file
;
   1   7  -3   23.91   14.98
   2   6  -3 1426.50   41.01
   1   6  -3  344.45   21.59
   0   6  -3  277.21   16.69
   0   5  -3  339.02   16.23
   1   5  -3   10.87    2.70
   2   5  -3  225.52   18.70
   3   5  -3   17.14    8.59
   3   4  -3  971.63   25.16
   2   4  -3  177.02   12.35
   1   4  -3 1225.42   26.08
   0   4  -3 1476.29   29.42
   0   3  -3  134.18    9.31
   1   3  -3   45.35    3.65
   2   3  -3  495.96   18.36
   3   3  -3  371.63   16.91
   3   2  -3 1400.81   29.99
   2   2  -3 1028.99   29.31
   1   2  -3  905.95   28.47
   0   2  -3   77.54    6.69
  -1   1  -3   70.78    4.41
   0   1  -3  163.71   10.64
   1   1  -3 1241.12   36.11
   2   1  -3   73.97    4.45
   3   1  -3 1040.84   27.75
   3   0  -3   72.94    4.75
   2   0  -3   21.21   11.86
   1   0  -3   63.48    4.33
   0   0  -3   18.06    9.01
  -1   0  -3    1.18    8.78
  -2   0  -2  387.18   15.70
  -1   0  -2 5065.26   48.05
   0   0  -2   73.74    4.49
   1   0  -2  367.33   19.20
   2   0  -2  333.16   14.06
   3   0  -2 4590.62   46.33
   4   0  -2  369.12   16.53
   4   1  -2  129.27    9.73
   3   1  -2 2020.84   30.56
   2   1  -2   90.66    6.27
   1   1  -2   14.33    2.85
   0   1  -2   18.09    1.60
  -1   1  -2  507.44   15.81
  -2   1  -2  805.90   21.55
  -2   2  -2    9.65    7.07
  -1   2  -2   -8.06    5.85
   0   2  -2  103.43    7.26
   1   2  -2 1795.93   38.81
   2   2  -2   81.72    5.85
   3   2  -2   79.10    4.49
   4   2  -2  258.05   14.37
   4   3  -2   57.05    4.56
   3   3  -2  182.72   11.78
   2   3  -2 1722.91   26.42
   1   3  -2  360.30   19.92
   0   3  -2   19.16    1.56
  -1   3  -2  134.86    8.78
  -2   3  -2  683.66   19.50
  -2   4  -2    9.77    7.07
  -1   4  -2  769.22   19.39
   0   4  -2  231.48   11.94
   1   4  -2 1056.09   31.70
   2   4  -2  175.04   11.56
   3   4  -2  964.29   23.38
   4   4  -2   70.24    4.83
   4   5  -2  529.07   20.22
   3   5  -2  139.16   11.52
   2   5  -2  461.33   19.16
   0   5  -2 2187.28   34.25
  -1   5  -2   70.05    4.79
  -2   5  -2    7.83    1.94
  -2   6  -2  115.48    7.45
  -1   6  -2 2950.84   41.05
   0   6  -2   44.28    3.23
   1   6  -2 5024.81   70.05
   2   6  -2   83.13    4.60
   3   6  -2 2234.68   38.77
   3   7  -2 1606.22   35.46
   2   7  -2  308.27   19.96
   1   7  -2   44.32    3.99
   0   7  -2  162.80   11.97
  -1   7  -2    8.44    9.05
  -1   8  -2  770.63   25.51
   0   8  -2  -28.43   11.75
   1   8  -2   -9.88   16.53
   2   8  -2 1464.17   39.15
   3   8  -2 1041.57   31.09
   2   9  -2   72.98    5.28
   1   9  -2   55.88    4.30
   0   9  -2  100.35    7.49
  -1   9  -2  197.88   13.91
   0  10  -2  652.53   28.81
   1  10  -2  561.99   29.34
   2  10  -2  122.24    7.91
   1  12  -1   19.84    3.88
   0  12  -1  560.85   28.74
  -1  11  -1   41.96    3.53
   0  11  -1 1254.54   38.88
   1  11  -1  178.16   12.05
   2  11  -1 1745.94   44.62
   3  10  -1  205.49   13.23
   2  10  -1  950.99   32.54
   1  10  -1  750.37   31.62
   0  10  -1  655.65   28.55
  -1  10  -1  -12.92   11.40
  -2  10  -1  223.65   14.29
  -2   9  -1 4053.76   54.62
  -1   9  -1   -4.75   12.54
   0   9  -1  247.07   17.56
   1   9  -1 2207.58   47.97
   2   9  -1 2316.22   47.40
   3   9  -1 1855.64   40.94
   3   8  -1  858.51   27.44
   2   8  -1  908.42   29.27
   1   8  -1  441.57   23.07
   0   8  -1  513.90   22.50
  -1   8  -1 3087.76   46.91
  -2   8  -1   49.19    4.07
  -3   7  -1   24.90    2.43
  -2   7  -1  349.01   16.99
  -1   7  -1  496.30   18.59
   0   7  -1 2410.06   42.53
   1   7  -1 1099.95   31.40
   2   7  -1  -11.82   10.03
   3   7  -1 1180.88   29.57
   4   6  -1   97.57    6.88
   3   6  -1 1907.60   34.59
   2   6  -1   76.71    4.22
   1   6  -1 2147.90   39.46
   0   6  -1  352.47   16.91
  -1   6  -1  198.61   12.28
  -2   6  -1  931.60   23.11
  -3   6  -1  957.53   25.32
  -3   5  -1   -1.48    7.41
  -2   5  -1  671.08   18.89
  -1   5  -1   34.25    2.58
   0   5  -1   46.41    4.22
   1   5  -1  393.52   17.41
   2   5  -1  318.07   14.06
   3   5  -1  440.43   17.41
   4   5  -1   35.69    2.58
   4   4  -1  746.11   22.20
   3   4  -1  478.29   16.42
   2   4  -1 2822.52   33.87
   1   4  -1 5429.59   52.00
   0   4  -1  549.52   16.61
  -1   4  -1  106.54    6.77
  -2   4  -1 2624.25   33.11
  -3   4  -1 1701.66   30.22
  -3   3  -1   50.06    2.77
  -2   3  -1   97.57    6.61
  -1   3  -1 1967.43   23.98
   0   3  -1 5538.22   41.58
   1   3  -1 2098.76   28.39
   2   3  -1   48.88    4.33
   3   3  -1 2897.09   35.05
   4   3  -1  270.41   14.41
   4   2  -1 1238.01   26.49
   3   2  -1   22.01    1.75
   2   2  -1 1575.31   21.25
   1   2  -1   40.94    3.34
   0   2  -1 3683.99   27.63
  -1   2  -1 2297.40   24.29
  -2   2  -1 1923.83   26.53
  -3   2  -1  -16.91    6.99
  -3   1  -1  775.57   20.26
  -2   1  -1 2949.89   32.35
  -1   1  -1   25.39    1.75
   0   1  -1   85.56    4.94
   1   1  -1 2403.22   20.60
   2   1  -1 2036.72   23.11
   3   1  -1  495.66   14.75
   4   1  -1  116.65    6.65
   4   0  -1   10.15    7.60
   3   0  -1    4.90    5.89
   2   0  -1    3.80    4.33
   1   0  -1   -0.30    4.14
   0   0  -1   -5.55    4.14
  -1   0  -1    4.56    4.11
  -2   0  -1   -2.89    5.32
  -3   0  -1  -15.43    6.80
  -4   0   0 5359.95   53.37
  -3   0   0   35.01    2.55
  -2   0   0 1385.03   19.04
  -1   0   0   30.29    2.47
   1   0   0   41.43    2.58
   2   0   0 1910.41   22.43
   3   0   0   40.60    3.19
   4   0   0 7171.58   61.77
   4   1   0 1057.65   25.24
   3   1   0    6.35    1.75
   2   1   0  529.22   12.70
   1   1   0  737.90   10.83
   0   1   0   10.72    0.91
  -1   1   0  590.50    9.35
  -2   1   0  381.28   10.60
  -3   1   0   21.21    1.52
  -4   1   0  747.55   20.91
  -4   2   0   31.89    2.13
  -3   2   0    5.93    5.40
  -2   2   0 5695.93   39.95
  -1   2   0   70.78    4.79
   0   2   0    3.27    4.98
   1   2   0   95.67    5.89
   2   2   0 6929.11   45.46
   3   2   0    1.29    6.92
   4   2   0   34.10    3.50
   4   3   0   85.14    5.17
   3   3   0  839.69   21.06
   2   3   0   73.25    5.09
   1   3   0 2101.91   24.82
   0   3   0   13.00    1.56
  -1   3   0 1723.36   21.17
  -2   3   0   56.71    4.94
  -3   3   0  662.94   17.79
  -4   3   0   70.05    4.22
  -4   4   0   57.66    4.71
  -3   4   0  216.66   12.01
  -2   4   0 2800.21   32.31
  -1   4   0   53.71    4.14
   0   4   0 1914.41   28.58
   1   4   0   46.72    3.31
   2   4   0 3261.39   36.87
   3   4   0  239.73   13.84
   4   4   0   73.44    4.64
   4   5   0  223.46   15.17
   3   5   0 2262.24   36.07
   2   5   0 1843.67   30.64
   1   5   0 2223.47   33.30
   0   5   0   15.85    2.20
  -1   5   0 1874.30   28.77
  -2   5   0 1579.53   26.61
  -3   5   0 1903.31   31.78
  -4   5   0  195.18   13.19
  -3   6   0  -14.48    8.82
  -2   6   0 2226.81   33.87
  -1   6   0    4.45    7.18
   0   6   0 5560.76   58.16
   1   6   0  146.19   10.15
   2   6   0 2616.12   39.07
   3   6   0  -10.30   10.26
   3   7   0  372.85   18.66
   2   7   0   60.47    2.89
   1   7   0 3199.51   47.55
   0   7   0  -14.18    9.58
  -1   7   0 2735.47   41.51
  -2   7   0   60.86    4.60
  -3   7   0  305.91   15.85
  -3   8   0  220.77   14.90
  -2   8   0   86.21    5.97
  -1   8   0  461.22   20.34
   0   8   0  703.12   25.47
   1   8   0  572.06   23.45
   2   8   0   90.31    7.07
   3   8   0  194.69   15.13
   3   9   0  332.94   19.46
   2   9   0  -17.52   13.00
   1   9   0  441.57   22.39
   0   9   0  -32.23   12.54
  -1   9   0  359.96   20.03
  -2   9   0   13.80   10.64
  -3   9   0  321.19   17.71
  -2  10   0   60.17    4.64
  -1  10   0  201.95   13.80
   0  10   0 9999.00   98.30
   1  10   0  245.09   19.58
   2  10   0   59.98    5.74
   2  11   0  537.36   26.87
   1  11   0  160.52   10.99
  -1  11   0  149.42    8.86
  -2  11   0  364.29   21.29
  -1  12   0   33.94    3.53
   0  12   0 1049.13   36.72
   1  12   0    4.87   15.28
   0  13   0  -20.60   14.22
   1   7  -4  600.15   25.96
   2   7  -4  972.54   41.36
   3   6  -4  149.04   11.44
   2   6  -4  916.70   41.20
   1   6  -4   52.61    3.27
   0   5  -4  605.13   23.83
   1   5  -4   15.96    2.62
   2   5  -4   36.26    3.92
   3   5  -4  319.86   18.51
   3   4  -4  296.90   18.17
   2   4  -4  239.43   15.96
   1   4  -4   20.18    9.96
   0   4  -4  920.39   28.66
   0   3  -4  350.27   19.23
   1   3  -4  172.23   14.56
   2   3  -4  292.00   21.93
   3   3  -4   85.45    6.69
   4   3  -4  154.48   12.54
   4   2  -4  381.09   21.13
   3   2  -4  422.41   24.14
   2   2  -4   65.91    4.71
   1   2  -4  355.78   21.78
   0   2  -4  794.73   28.39
   0   1  -4   29.91    3.04
   1   1  -4  184.20   12.01
   2   1  -4  803.62   37.71
   3   1  -4   18.85   13.19
   4   1  -4  642.04   26.87
   4   0  -4  598.93   26.42
   3   0  -4  430.70   26.15
   2   0  -4 1264.92   45.80
   1   0  -4  657.89   31.28
   0   0  -4  695.29   28.58
  -2   0  -3    6.20    9.35
   4   0  -3    2.85   10.53
   5   0  -3    9.43   11.18
   5   1  -3  316.67   18.78
   4   1  -3  419.68   18.59
  -2   1  -3  123.53    9.12
  -2   2  -3  351.86   17.37
  -1   2  -3 1346.53   29.57
   4   2  -3  182.49   11.06
   5   2  -3  810.16   26.49
   5   3  -3  525.12   22.20
   4   3  -3 2897.89   44.24
  -1   3  -3 2387.03   38.43
  -2   3  -3  264.25   15.85
  -2   4  -3  146.87    8.55
  -1   4  -3  462.32   18.51
   4   4  -3  962.81   27.03
   5   4  -3  130.30    7.68
   5   5  -3    9.27   11.75
   4   5  -3   78.72    7.41
  -1   5  -3   75.03    6.88
  -2   5  -3   16.23    8.74
  -2   6  -3  504.78   21.06
  -1   6  -3   -2.81    9.81
   3   6  -3  150.18   11.97
   4   6  -3  547.77   22.54
   4   7  -3 1232.27   33.72
   3   7  -3  699.47   27.79
   2   7  -3  406.03   26.23
   0   7  -3  245.24   17.03
  -1   7  -3 2700.62   45.12
  -2   7  -3  139.46   10.41
  -1   8  -3 2505.47   45.76
   0   8  -3  161.89   10.99
   1   8  -3 1510.69   45.00
   2   8  -3  802.06   34.86
   3   8  -3 2022.74   46.14
   4   8  -3  508.62   24.86
   4   9  -3  791.42   30.83
   3   9  -3  292.15   20.53
   2   9  -3  288.69   18.28
   1   9  -3 1542.09   47.32
   0   9  -3  666.44   27.79
  -1   9  -3   36.64    3.27
  -1  10  -3  713.00   27.41
   0  10  -3  409.87   24.74
   1  10  -3 1093.72   40.67
   2  10  -3   17.64   16.69
   3  10  -3  743.34   32.69
   3  11  -3  484.45   29.12
   2  11  -3  -23.83   16.00
   1  11  -3 1010.82   40.44
   0  11  -3  142.88   10.57
   1  12  -3  224.41   15.85
   2  12  -3  -11.44   18.63
   2  14  -2  183.97   14.18
   1  14  -2   32.80   18.17
   0  14  -2   20.91   16.72
  -1  13  -2  115.55    7.49
   0  13  -2  510.03   29.15
   1  13  -2  439.67   29.15
   2  13  -2  462.44   28.74
   3  13  -2   79.10    5.06
   3  12  -2  463.69   27.56
   2  12  -2   17.94   14.60
   1  12  -2 7006.23   97.31
   0  12  -2  414.24   25.73
  -1  12  -2  822.93   32.46
  -2  12  -2   70.13    3.92
  -2  11  -2 1237.51   36.30
  -1  11  -2  143.49   10.26
   0  11  -2   17.56   13.42
   1  11  -2  242.55   15.51
   2  11  -2   -9.27   13.91
   3  11  -2 2391.29   53.63
   4  11  -2   20.03   14.25
   4  10  -2  902.87   32.80
   3  10  -2 5341.18   75.41
  -1  10  -2 4959.40   67.05
  -2  10  -2    1.18   10.53
  -3   9  -2   -5.06   10.72
  -2   9  -2   90.96    4.79
   3   9  -2  168.08   10.87
   4   9  -2   81.46    5.66
   4   8  -2   69.71    4.75
  -2   8  -2  189.64   13.00
  -3   8  -2  351.14   18.32
  -3   7  -2  665.38   23.87
  -2   7  -2 2239.97   39.04
   4   7  -2  533.82   22.27
   5   7  -2   38.66    3.61
   5   6  -2 1232.91   32.50
   4   6  -2   53.14    2.93
  -3   6  -2 2057.55   38.92
  -3   5  -2  122.85    8.10
   5   5  -2 2451.42   43.64
   5   4  -2  838.93   26.19
  -3   4  -2 1866.09   35.12
  -3   3  -2   17.98    2.20
   5   3  -2   24.55    2.70
   5   2  -2  650.63   22.92
  -3   2  -2 1546.01   31.70
  -4   1  -2   64.39    5.02
  -3   1  -2   70.85    5.47
   5   1  -2 1305.40   30.71
   5   0  -2  305.95   17.41
  -3   0  -2  319.90   16.23
  -4   0  -2  147.82   10.45
  -4   0  -1   16.34    7.41
   5   0  -1   13.34    9.39
   5   1  -1  830.91   25.01
  -4   1  -1   96.43    8.44
  -4   2  -1  705.25   22.01
   5   2  -1  170.71   11.97
   5   3  -1 2274.37   39.99
  -4   3  -1 4978.44   56.41
  -4   4  -1  138.47    8.70
   5   4  -1  668.95   23.15
   5   5  -1  155.54   11.10
  -4   5  -1  119.73    7.11
  -4   6  -1  686.97   23.34
   5   6  -1  473.35   21.89
   5   7  -1  567.80   23.68
   4   7  -1  746.87   25.20
  -4   7  -1 2009.51   39.61
  -4   8  -1  337.34   19.08
  -3   8  -1   42.99    3.00
   4   8  -1  811.95   27.63
   5   8  -1   60.51    3.61
   4   9  -1  678.79   26.46
  -3   9  -1  372.05   19.04
  -4   9  -1 1274.69   34.59
  -3  10  -1  198.19   13.46
   4  10  -1  490.07   24.33
   4  11  -1  356.65   23.11
   3  11  -1  170.67   12.77
  -2  11  -1  152.84    9.81
  -3  11  -1  983.91   31.89
  -3  12  -1   33.91    3.31
  -2  12  -1    6.77   11.52
  -1  12  -1  137.10    9.01
   2  12  -1  144.44   10.30
   3  12  -1   87.69    6.16
   4  12  -1  451.15   25.47
   3  13  -1 2161.09   52.80
   2  13  -1   25.09   14.29
   1  13  -1 1589.34   47.13
   0  13  -1 3675.10   68.08
  -1  13  -1  857.37   33.56
  -2  13  -1  234.03   18.21
  -2  14  -1 1512.18   43.56
  -1  14  -1   27.52   15.62
   0  14  -1  322.75   19.16
   1  14  -1 2840.88   63.25
   2  14  -1 2731.41   62.00
   3  14  -1   67.24    5.17
   2  15  -1   41.77    4.56
   1  15  -1  449.74   28.32
   0  15  -1  301.80   21.59
  -1  15  -1  171.81   11.40
   0  16  -1 1548.78   49.60
   1  16  -1   19.46   17.14
   1  16   0  516.26   30.90
   0  16   0 2501.78   61.46
  -1  16   0  546.40   31.89
  -2  15   0   99.25    6.04
  -1  15   0 1059.47   39.80
   0  15   0  -16.31   16.61
   1  15   0  975.47   39.15
   2  15   0  129.27    7.53
   2  14   0  295.38   22.16
   1  14   0  631.74   31.85
   0  14   0   87.16    5.28
  -1  14   0  698.22   32.42
  -2  14   0  295.19   17.64
  -3  13   0  867.97   32.50
  -2  13   0  107.95    9.05
  -1  13   0  194.20   12.43
   1  13   0  206.21   12.96
   2  13   0  134.48    9.24
   3  13   0 1024.27   36.95
   3  12   0   37.06    4.03
   2  12   0 6039.70   82.14
  -2  12   0 5281.35   73.13
  -3  12   0   22.84   12.24
  -4  11   0  522.34   25.05
  -3  11   0   68.15    3.61
   3  11   0   70.93    5.97
   4  11   0  625.96   28.55
   4  10   0 3918.17   62.53
   3  10   0  305.80   20.15
  -3  10   0  280.52   17.79
  -4  10   0 3552.32   56.48
  -4   9   0  143.22    8.82
   4   9   0  149.61    9.50
   4   8   0 1568.93   37.33
  -4   8   0 1458.92   34.29
  -4   7   0 1357.47   31.93
   4   7   0 1611.54   36.57
   5   6   0  172.11   12.92
   4   6   0 1090.91   29.65
  -4   6   0  949.58   26.23
  -5   6   0  162.15   10.45
  -5   5   0   14.14    2.43
   5   5   0    5.02   11.02
   5   4   0  460.95   21.51
  -5   4   0  396.22   18.70
  -5   3   0  379.88   17.94
   5   3   0  416.52   20.49
   5   2   0   19.35    9.84
  -5   2   0   10.80    2.32
  -5   1   0  588.71   21.59
   5   1   0  762.34   24.93
   5   0   0 2035.13   38.05
  -5   0   0 1501.23   32.92
   2  12  -4  164.55   13.57
   3  11  -4   81.80    5.63
   2  11  -4  504.48   34.44
   1  11  -4  165.19   12.58
   0  10  -4  132.66    8.44
   1  10  -4  348.37   25.92
   2  10  -4 1103.90   46.83
   3  10  -4  207.80   16.31
   4   9  -4   23.79   14.79
   3   9  -4  -18.74   15.43
   2   9  -4  704.76   39.65
   1   9  -4  265.20   16.61
   0   9  -4   -1.90   12.35
  -1   8  -4   25.24    3.15
   0   8  -4   14.56    3.12
   1   8  -4  586.39   27.86
   2   8  -4  418.76   29.80
   3   8  -4   20.18   14.75
   4   8  -4   29.76    3.65
   4   7  -4   -7.79   12.28
   3   7  -4   -1.60   13.04
   0   7  -4  129.46    8.36
  -1   7  -4    6.42   10.11
  -1   6  -4   42.76    3.12
   0   6  -4 2219.25   43.10
   4   6  -4 1077.45   32.99
   5   6  -4   10.34   12.05
   5   5  -4    2.13   12.85
   4   5  -4 2316.10   45.23
  -1   5  -4 1772.85   39.95
  -2   4  -4   92.18    7.79
  -1   4  -4   39.87    3.46
   4   4  -4  357.15   20.68
   5   4  -4   43.71    3.38
   5   3  -4   13.68    3.12
  -1   3  -4   54.36    3.57
  -2   3  -4   25.32    3.04
  -2   2  -4    7.18   10.53
  -1   2  -4   75.68    4.11
   5   2  -4  387.18   22.77
   5   1  -4   54.17    3.61
  -1   1  -4  201.00   12.58
  -2   1  -4    6.84   10.53
  -2   0  -4 1438.59   39.30
  -1   0  -4  293.86   20.03
   5   0  -4  266.07   19.65
   6   0  -3   41.58    3.42
  -3   0  -3   12.66    2.62
  -3   1  -3  821.33   27.37
   6   1  -3  610.98   25.81
   6   2  -3   26.72    3.42
  -3   2  -3   82.18    6.12
  -3   3  -3  430.77   20.75
   6   3  -3  699.47   27.14
   6   4  -3  501.21   23.57
  -3   4  -3  383.11   20.07
  -3   5  -3  188.91   13.11
   6   5  -3  169.68   10.26
   5   6  -3   26.30    3.12
  -3   6  -3  192.60   13.91
  -3   7  -3  228.41   15.36
   5   7  -3   13.30   12.35
   5   8  -3  924.23   32.31
  -2   8  -3  293.18   18.47
  -3   8  -3  150.26   10.26
  -2   9  -3    0.76   11.44
   5   9  -3  328.53   21.48
   5  10  -3  224.15   16.80
   4  10  -3   43.64    3.84
  -2  10  -3   46.83    3.53
  -2  11  -3   35.50    3.46
  -1  11  -3  631.32   27.71
   4  11  -3   -5.78   12.51
   4  12  -3  213.85   16.08
   3  12  -3   69.94    5.09
   0  12  -3  245.62   18.55
  -1  12  -3  219.13   13.27
  -1  13  -3 1216.57   41.17
   0  13  -3  303.13   22.65
   1  13  -3  319.48   24.63
   2  13  -3  459.51   31.85
   3  13  -3  552.86   33.22
   4  13  -3  536.48   31.13
   3  14  -3 1125.61   45.31
   2  14  -3  166.98   13.00
   1  14  -3 1415.29   50.44
   0  14  -3  800.43   37.44
   0  15  -3  293.29   21.13
   1  15  -3  239.47   15.17
   2  15  -3  243.31   16.46
   2  17  -2  241.29   16.46
   1  17  -2   -7.15   18.78
   0  17  -2  152.04   12.39
  -1  16  -2  682.75   34.67
   0  16  -2   27.10   15.70
   1  16  -2 2079.37   60.02
   2  16  -2   -5.17   16.72
   3  16  -2  975.43   42.00
   3  15  -2    2.81   15.58
   2  15  -2  208.03   16.65
   1  15  -2  554.54   33.11
   0  15  -2 1050.73   42.15
  -1  15  -2    2.36   14.52
  -2  15  -2   61.27    4.37
  -2  14  -2  215.37   14.41
  -1  14  -2  208.72   12.54
   3  14  -2  150.22   12.01
   4  14  -2   13.95   15.51
   4  13  -2  -11.63   14.52
  -2  13  -2   32.00    3.61
  -3  13  -2   87.61    6.12
  -3  12  -2 1829.83   45.19
   4  12  -2   28.77    3.92
   5  12  -2 1509.90   44.36
   5  11  -2  837.60   32.46
  -3  11  -2  199.02   12.62
  -3  10  -2  265.62   15.24
   5  10  -2   71.35    5.66
   5   9  -2   63.97    4.22
  -4   9  -2  102.21    7.83
  -4   8  -2    4.41    9.43
   5   8  -2  165.80   11.25
   6   7  -2   46.53    4.60
  -4   7  -2    0.99   10.57
  -4   6  -2  364.56   20.15
   6   6  -2  114.64    8.78
   6   5  -2  571.30   25.43
  -4   5  -2 1248.88   33.03
  -4   4  -2   42.91    2.81
   6   4  -2  131.44    9.08
   6   3  -2  165.57   12.39
  -4   3  -2  236.39   15.39
  -4   2  -2   10.19    8.48
   6   2  -2  200.54   14.25
   6   1  -2   84.00    6.20
   6   0  -2  324.88   20.07
   6   0  -1    1.29   11.94
  -5   0  -1  -18.51    8.97
  -5   1  -1  177.93   12.39
   6   1  -1  234.15   15.74
   6   2  -1  200.73   13.38
  -5   2  -1   38.96    3.23
  -5   3  -1  258.21   16.42
   6   3  -1  315.30   20.15
   6   4  -1  146.42    7.49
  -5   4  -1   20.15    2.66
  -5   5  -1    2.28   10.03
   6   5  -1   52.68    3.53
   6   6  -1   10.34   12.47
  -5   6  -1  162.04   10.68
  -5   7  -1  324.08   19.01
   6   7  -1  148.09   10.64
  -5   8  -1  397.48   22.43
   5   9  -1 2264.94   47.78
   5  10  -1   13.00   14.37
  -4  10  -1   35.31    3.15
  -4  11  -1  300.06   17.75
   5  11  -1   20.45   14.06
   5  12  -1  103.12    5.70
  -4  12  -1  189.06   13.72
  -3  13  -1    2.32   12.51
   4  13  -1  639.19   30.86
   4  14  -1  643.94   31.59
  -3  14  -1  825.29   32.80
  -3  15  -1   28.05   14.94
  -2  15  -1  738.24   33.15
   3  15  -1 1021.35   39.65
   4  15  -1   75.60    5.47
   3  16  -1 1383.81   47.55
   2  16  -1   -9.92   15.81
  -1  16  -1 2122.51   55.31
  -2  16  -1    2.85   15.36
  -2  17  -1   26.84   15.58
  -1  17  -1  314.92   22.58
   0  17  -1  613.26   35.81
   1  17  -1    3.08   18.40
   2  17  -1   16.46   18.74
   3  17  -1  120.53    9.81
   2  18  -1   81.76    5.55
   1  18  -1  229.24   19.08
   0  18  -1  314.99   22.84
  -1  18  -1  123.08    9.39
   0  19   0  -37.36   22.24
  -2  18   0  181.39   15.51
  -1  18   0  194.08   16.31
   0  18   0 3832.54   78.19
   1  18   0  173.10   11.63
   2  18   0  165.73   10.49
   2  17   0   70.55    5.09
   1  17   0 1057.04   43.41
   0  17   0  -13.11   19.99
  -1  17   0 1179.09   44.32
  -2  17   0   59.45    4.64
  -3  16   0   12.85   15.55
  -2  16   0 1481.84   46.30
   2  16   0 1595.91   49.98
   3  16   0   11.59   17.52
   3  15   0  518.69   30.45
  -3  15   0  453.09   27.56
  -4  14   0   21.40   15.32
  -3  14   0  597.98   28.70
   3  14   0  659.71   31.47
   4  14   0   26.72    4.07
   4  13   0  227.30   13.84
  -4  13   0  188.57   14.10
  -4  12   0  459.02   24.14
   4  12   0  437.50   25.01
   5  11   0  524.58   26.91
  -5  11   0  491.86   25.05
  -5  10   0  537.20   25.28
   5  10   0  592.47   27.94
   5   9   0   95.63    7.22
  -5   9   0   83.78    5.17
  -5   8   0   63.14    5.36
   5   8   0   71.23    5.02
   5   7   0 1334.33   36.11
  -5   7   0 1228.81   32.84
   6   5   0 1320.30   37.59
  -6   5   0 1120.90   33.56
  -6   4   0  254.56   15.17
   6   4   0  271.62   19.12
   6   3   0   82.37    7.11
  -6   3   0   72.49    4.60
  -6   2   0  484.37   22.58
   6   2   0  565.75   24.78
   6   1   0  396.34   21.97
  -6   1   0  302.15   18.93
  -6   0   0  204.31   11.33
   6   0   0  228.41   15.09
   0  14  -4  121.67    8.63
   1  14  -4  348.03   21.48
   2  14  -4   55.69    5.89
   3  14  -4   18.40   17.29
   4  13  -4  588.44   36.30
   3  13  -4    7.26   19.39
   2  13  -4    3.42   20.75
   1  13  -4   34.48   18.06
   0  13  -4  116.35    9.92
  -1  12  -4  346.54   22.62
   0  12  -4 1691.51   49.95
   1  12  -4    2.05   15.51
   3  12  -4  579.40   35.69
   4  12  -4  563.85   33.30
   5  11  -4    6.92    4.03
   4  11  -4  421.54   28.62
   0  11  -4   72.87    6.08
  -1  11  -4  197.28   12.58
  -1  10  -4  354.56   22.84
   4  10  -4  160.56   13.80
   5  10  -4  151.40   10.80
   5   9  -4   13.99    3.76
  -1   9  -4   -6.92   11.18
  -2   9  -4   85.33    4.98
  -2   8  -4  361.90   22.27
   5   8  -4  290.17   18.25
   6   7  -4 1245.08   39.57
   5   7  -4   15.05   12.24
  -2   7  -4  118.06    7.94
  -2   6  -4  518.50   24.82
   6   6  -4  206.63   12.13
   6   5  -4  168.84   11.90
  -2   5  -4  216.05   14.60
   6   4  -4   52.91    3.80
   6   3  -4  122.17   10.53
  -3   3  -4  195.91   15.58
  -3   2  -4   80.47    5.78
   6   2  -4   -1.90   14.14
   6   1  -4  992.50   33.83
  -3   1  -4  476.65   25.51
  -3   0  -4   12.47   13.08
   6   0  -4  344.38   20.91
   7   0  -3   32.35    3.88
  -4   0  -3   24.52   10.72
  -4   1  -3  116.35    8.36
   7   1  -3  473.19   26.27
   7   2  -3  128.67    9.62
  -4   2  -3   15.96   11.06
  -4   3  -3   25.05    3.12
   7   3  -3  -10.00   14.79
  -4   4  -3  273.03   18.44
  -4   5  -3   13.19   10.80
   6   6  -3  539.14   26.04
  -4   6  -3  213.66   14.86
  -4   7  -3   -3.69   11.71
   6   7  -3  308.76   19.65
   6   8  -3   36.87   15.05
  -3   9  -3 2313.40   48.16
   6   9  -3  803.85   32.42
   6  10  -3   66.10    4.33
  -3  10  -3  199.29   13.46
  -3  11  -3  111.22    6.42
   5  11  -3  582.70   30.33
   5  12  -3  194.50   12.13
  -2  12  -3   70.51    4.56
  -3  12  -3    6.92   12.20
  -2  13  -3  202.03   12.54
   5  13  -3  107.04    6.46
   4  14  -3  172.34   11.40
  -1  14  -3  720.95   34.29
  -2  14  -3  129.54    9.84
  -1  15  -3  162.15   11.18
   3  15  -3   54.66    6.20
   4  15  -3  713.92   37.52
   3  16  -3  169.34   11.29
   2  16  -3  970.72   44.59
   1  16  -3  211.76   12.54
   0  16  -3   83.24    6.61
  -1  16  -3  471.71   30.90
   0  17  -3  109.32   10.41
   1  17  -3  -18.09   19.88
   2  17  -3   18.55   19.46
   3  17  -3  277.06   20.53
   2  19  -2   78.26    6.01
   1  19  -2   18.59   20.03
   0  19  -2  235.82   16.80
  -1  18  -2 1761.87   54.96
   0  18  -2  -11.75   17.64
   1  18  -2  377.41   25.35
   2  18  -2  291.20   24.71
   3  18  -2  932.48   44.02
   4  17  -2  251.33   16.72
   3  17  -2  937.95   42.69
  -1  17  -2   22.39    4.56
  -2  17  -2 1188.10   43.79
  -2  16  -2   55.69    4.56
   4  16  -2   22.81   16.76
   5  15  -2  606.12   32.99
   4  15  -2  664.84   34.67
  -3  15  -2    9.92   13.53
  -3  14  -2   36.49    3.80
   5  14  -2   62.00    6.01
   5  13  -2  815.02   36.53
  -4  12  -2   70.36    4.03
   6  11  -2   26.99   14.25
  -4  11  -2  157.97   10.07
  -4  10  -2  348.60   21.97
   6  10  -2   13.46   14.71
   6   9  -2   34.51   13.65
  -5   8  -2  167.66   12.01
   6   8  -2   55.76    4.87
  -5   7  -2  166.68    9.73
  -5   6  -2  426.78   23.34
   7   5  -2  233.73   14.79
  -5   5  -2  369.05   21.36
  -5   4  -2   71.42    4.03
   7   4  -2   25.05   14.03
   7   3  -2  266.38   17.98
  -5   3  -2    2.62    9.73
  -5   2  -2   38.66    3.08
   7   2  -2   45.31    4.14
   7   1  -2 1291.75   37.74
  -5   1  -2  139.96    9.01
  -5   0  -2 1529.74   38.05
   7   0  -2  498.40   25.51
   7   0  -1    9.24   12.16
  -6   0  -1    0.91   10.95
  -6   1  -1  780.13   28.93
   7   1  -1  549.90   27.03
   7   2  -1   -8.29   12.81
  -6   2  -1  167.85   11.33
  -6   3  -1  872.88   30.45
   7   3  -1 1210.98   36.95
   7   4  -1  677.96   29.19
  -6   4  -1  230.80   13.15
  -6   5  -1  152.57   10.53
  -6   6  -1   75.98    7.11
   6   8  -1   19.08    3.50
  -5   9  -1  278.69   18.13
   6   9  -1  217.42   14.67
   6  10  -1   11.52   13.53
  -5  10  -1    6.04   12.13
  -5  11  -1   74.42    5.06
   6  11  -1  513.98   29.12
  -5  12  -1   65.42    4.33
  -4  13  -1 1958.95   47.78
   5  13  -1  850.87   35.16
   5  14  -1  364.26   22.96
  -4  14  -1  -11.52   13.57
  -4  15  -1  631.09   31.40
   5  15  -1 1109.72   42.00
   4  16  -1  145.09   10.99
  -3  16  -1   20.60    3.92
  -3  17  -1   14.67    4.11
   4  17  -1  312.45   21.74
   3  18  -1   80.28    6.23
  -2  18  -1   64.20    5.70
  -2  19  -1 1509.82   49.83
  -1  19  -1    1.79   17.67
   0  19  -1  171.28   15.09
   1  19  -1 1434.71   51.81
   2  19  -1  718.63   38.28
   3  19  -1  297.51   20.87
   2  20  -1  455.60   34.25
   1  20  -1  413.59   31.59
   0  20  -1  573.12   35.69
  -1  20  -1   21.59   23.07
   0  21   0   15.13   21.17
  -2  20   0  278.77   18.32
  -1  20   0  505.92   34.89
   0  20   0  948.90   44.55
   1  20   0  452.48   28.24
   2  20   0  243.23   14.33
   2  19   0   55.04    5.25
   1  19   0   91.45    7.98
  -1  19   0   77.58    9.46
  -2  19   0   60.97    5.02
  -3  18   0   13.57   16.08
   3  18   0    0.99   17.22
   4  17   0  708.86   36.87
   3  17   0  188.68   11.18
  -3  17   0  164.89   11.52
  -4  17   0  690.35   33.72
  -4  16   0 1087.67   39.68
   4  16   0 1130.97   42.23
   4  15   0   -3.53   13.80
  -4  15   0  -14.52   14.33
  -5  14   0    9.88   15.96
   5  14   0   -5.85   15.36
   5  13   0   28.17   13.95
  -5  13   0   10.76    3.42
  -5  12   0   22.31   13.04
   5  12   0   23.76    3.84
  -6  10   0   14.29   11.52
   6  10   0   23.57   15.28
   6   9   0   13.08   12.70
  -6   9   0   -7.79   12.09
  -6   8   0  109.13    7.18
   6   8   0  144.29    8.40
   6   7   0  109.74    9.43
  -6   7   0  120.42    9.43
  -6   6   0  560.96   25.20
   6   6   0  576.43   27.29
   2  13  -5  218.37   15.28
   1  12  -5  -10.00   18.32
   2  12  -5   20.30   22.46
   3  12  -5  213.77   12.47
   4  11  -5  227.49   13.84
   3  11  -5   46.22    5.74
   2  11  -5  107.61    9.39
   1  11  -5   89.13    7.07
   0  11  -5  155.88    9.73
   0  10  -5  214.65   16.95
   1  10  -5  129.50    9.84
   3  10  -5   97.57    6.08
   4  10  -5  252.05   19.61
   5   9  -5  741.02   34.40
   4   9  -5   29.04    4.49
   0   9  -5  791.84   32.54
  -1   8  -5   76.52    5.63
   0   8  -5  826.69   33.03
   5   8  -5   26.95    4.22
   5   7  -5   -7.56   14.82
  -1   7  -5   11.94   13.19
  -1   6  -5  217.34   16.76
   5   6  -5   76.74    7.07
   6   5  -5   94.61    7.30
   5   5  -5   57.97    5.51
  -1   5  -5   24.52   13.72
  -1   4  -5  195.83   13.08
   6   4  -5  536.63   29.27
   6   3  -5   11.86   15.36
  -1   3  -5   23.60   13.84
  -2   3  -5  589.01   30.14
  -2   2  -5  394.70   25.16
   6   2  -5  188.27   12.01
   6   1  -5  189.52   12.92
  -2   1  -5    5.47   14.25
  -2   0  -5   -9.43   13.87
   6   0  -5    1.98    4.07
   7   0  -4  355.13   23.30
   7   1  -4    2.28   14.71
   7   2  -4    0.11   15.51
   7   3  -4   24.21   14.79
   7   4  -4   -7.72   15.47
  -3   4  -4   -0.99   12.62
  -3   5  -4   52.49    5.13
   7   5  -4   28.81   15.93
  -3   6  -4   10.60   12.43
  -3   7  -4  877.70   32.80
   6   8  -4   -0.84   13.00
  -3   8  -4  132.81   10.64
  -3   9  -4  161.39   13.27
   6   9  -4  198.38   13.53
   6  10  -4   75.72    6.12
  -2  10  -4  998.81   35.77
  -2  11  -4   20.53   14.25
   6  11  -4  910.58   39.80
   5  12  -4   62.11    4.71
  -2  12  -4   28.77    4.03
  -1  13  -4  314.65   22.20
   5  13  -4  102.44    7.68
   4  14  -4   20.75   18.55
  -1  14  -4    6.65   16.72
  -1  15  -4  250.22   16.38
   0  15  -4  414.96   26.49
   1  15  -4  -20.87   19.46
   2  15  -4   75.11    6.35
   3  15  -4  251.93   18.36
   4  15  -4  457.76   30.33
   3  16  -4  -10.68   18.36
   2  16  -4  599.77   40.14
   1  16  -4   39.72   21.97
   0  16  -4  609.88   35.39
   1  17  -4  420.47   29.04
   2  17  -4 1048.83   51.01
   3  19  -3   29.38   20.15
   2  19  -3  430.39   26.65
   1  19  -3 1109.64   50.67
   0  19  -3  273.03   19.65
  -1  18  -3  316.32   21.86
   0  18  -3  209.63   11.14
   1  18  -3  117.76    6.73
   2  18  -3  178.92   11.40
   3  18  -3   85.30    5.82
   4  17  -3   -0.72   16.38
  -1  17  -3  123.99   11.71
  -2  17  -3  105.63    7.53
  -2  16  -3  426.21   29.04
   4  16  -3  147.29   12.62
   5  16  -3  158.58   11.71
   5  15  -3   11.82   16.27
  -2  15  -3   -6.80   15.47
  -3  14  -3  390.07   27.22
   5  14  -3  231.37   14.82
   6  13  -3  178.38   13.53
  -3  13  -3  113.42    8.02
   6  12  -3   26.04   15.58
   6  11  -3    4.07   16.42
  -4  11  -3  266.07   17.67
  -4  10  -3    4.03   13.34
   7   9  -3  413.10   26.65
  -4   9  -3    1.56   11.40
  -4   8  -3   50.29    4.03
   7   8  -3  144.29   11.44
   7   7  -3    4.11   14.44
   7   6  -3  201.61   13.68
   7   5  -3   81.68    4.68
  -5   4  -3    7.22   12.77
   7   4  -3  268.93   20.83
  -5   3  -3 1285.98   38.85
  -5   2  -3  177.02   10.26
  -5   1  -3    9.27   13.84
  -5   0  -3   -0.68   11.86
  -6   0  -2  122.93    8.32
  -6   1  -2  484.33   25.58
  -6   2  -2   53.37    4.18
  -6   3  -2  233.12   18.40
  -6   4  -2  156.53   10.49
   7   6  -2   67.24    4.98
   7   7  -2  860.75   34.13
   7   8  -2    1.71   14.56
  -5   9  -2    5.97   13.27
   7   9  -2  167.28   12.32
   7  10  -2  338.29   20.64
  -5  10  -2 1281.41   39.72
  -5  11  -2  158.88   10.68
   6  12  -2  334.19   23.07
  -4  13  -2  775.42   32.77
   6  13  -2  254.67   17.56
   6  14  -2   32.46    5.40
  -4  14  -2   17.94   16.61
  -4  15  -2  555.64   30.41
   5  16  -2  199.71   17.18
  -3  16  -2  832.09   36.15
  -3  17  -2  223.31   14.48
   5  17  -2   78.68    5.32
   4  18  -2   59.45    5.17
  -2  18  -2   57.05    5.09
  -2  19  -2   -1.41   17.26
  -1  19  -2   41.85    5.25
   3  19  -2  -19.77   18.17
   4  19  -2    5.74   18.47
   3  20  -2  309.33   22.88
   2  20  -2  -33.22   21.32
   1  20  -2   82.25    6.35
   0  20  -2  422.26   32.84
  -1  20  -2  657.51   37.86
   0  21  -2   17.29    5.74
   1  21  -2   35.24   24.59
   2  21  -2    6.54   21.40
   0  22  -1  174.77   11.90
   1  22  -1  173.02    9.24
   2  21  -1  235.67   18.25
   1  21  -1   32.16   21.55
   0  21  -1  993.60   47.97
  -1  21  -1  393.83   26.61
  -2  21  -1    3.88   18.97
  -2  20  -1  451.83   30.60
   3  20  -1   -8.55   18.47
   4  19  -1   17.10   19.99
  -3  19  -1  317.12   22.50
  -3  18  -1  156.76   12.73
   4  18  -1  266.61   22.16
   5  17  -1   14.67   17.79
  -4  17  -1  117.98    8.74
  -4  16  -1  309.82   23.57
   5  16  -1   91.30    7.45
  -5  14  -1    5.25   14.44
   6  14  -1  108.37    7.11
   6  13  -1    9.62   16.72
  -5  13  -1  646.64   29.91
   6  12  -1   51.20    4.37
  -6  10  -1   56.86    4.03
   7   9  -1  695.18   32.50
  -6   9  -1 1468.62   42.53
  -6   8  -1  272.31   20.26
   7   8  -1   34.97   14.82
   7   7  -1  552.41   28.32
  -6   7  -1  427.16   24.71
   7   6  -1  170.44   12.62
   7   5  -1   77.16    5.93
   7   0   0   96.36    7.18
  -7   0   0   86.93    7.37
  -7   1   0    8.13   12.47
   7   1   0  -12.35   13.11
   7   2   0  232.66   15.39
  -7   2   0  210.81   13.61
  -7   3   0   81.99    4.64
   7   3   0   97.57    5.89
   7   4   0  257.67   18.21
  -7   4   0  279.30   18.32
  -7   5   0  301.69   21.93
   7   5   0  283.90   19.96
   7   6   0  299.33   20.56
  -7   6   0  286.45   19.35
  -7   7   0  -17.71   13.53
   7   7   0    2.09   15.24
  -6  11   0  415.76   25.92
   6  11   0  440.20   27.52
   6  12   0  921.64   38.01
  -6  12   0  952.20   36.26
  -6  13   0  383.07   24.86
   6  13   0  378.21   24.97
  -5  15   0  152.12   11.37
   5  15   0  202.14   11.02
   5  16   0  213.92   13.30
  -5  16   0  203.55   14.56
   4  18   0  818.03   39.26
  -4  18   0  699.55   35.46
  -4  19   0   42.61    5.51
  -3  19   0  352.32   20.41
   3  19   0  402.99   25.70
   4  19   0   59.94    5.32
   3  20   0   19.69   18.59
  -3  20   0   22.65    4.60
  -2  21   0   -2.20   20.34
  -1  21   0   13.04    5.36
   1  21   0   24.06   21.40
   2  21   0   30.56    5.63
   1  22   0   43.94    6.04
   0  22   0  445.22   25.62
  -1  22   0   43.56    5.70
   3   9  -6    3.88   21.70
   2   9  -6   33.53   17.67
   2   8  -6    2.62   15.47
   3   8  -6   23.41   23.30
   4   8  -6  157.71   11.86
   4   7  -6   -0.42   15.20
   3   7  -6    8.36   19.96
   2   7  -6   24.78   15.01
   1   7  -6  188.23   12.24
   1   6  -6  246.19   15.58
   2   6  -6  226.20   17.26
   3   6  -6  205.03   11.33
   4   6  -6   29.69    4.37
   5   5  -6   59.41    4.87
   4   5  -6   38.73   18.28
   3   5  -6  626.07   39.65
   2   5  -6  127.26    9.01
   1   5  -6   23.07   15.05
   0   4  -6  -10.11   14.90
   1   4  -6   53.75    4.83
   4   4  -6    6.58   15.93
   5   4  -6   75.45    6.39
   5   3  -6  119.39    9.43
   4   3  -6   14.63   18.63
   1   3  -6  129.69   10.11
   0   3  -6   13.19   15.62
   0   2  -6   43.10    4.52
   1   2  -6    3.08   16.95
   4   2  -6   52.19    5.40
   5   2  -6   -2.43   18.06
   5   1  -6  461.14   29.50
   1   1  -6  121.29   10.87
   0   1  -6  156.38   12.13
   0   0  -6  231.60   14.22
   1   0  -6  259.57   18.47
   5   0  -6  167.66   10.60
   7   0  -5  -11.56   16.84
   7   1  -5   13.30   17.56
   7   2  -5  198.19   13.87
   7   3  -5  346.24   26.84
   7   4  -5   35.27   17.83
  -2   4  -5  439.52   26.27
  -2   5  -5   10.83   14.25
   6   6  -5  161.17   11.29
  -2   6  -5   73.25    7.41
  -2   7  -5  374.18   24.10
   6   7  -5    5.82   14.33
   6   8  -5  147.25    9.27
  -2   8  -5  403.75   25.58
  -1   9  -5    7.64   13.53
   6   9  -5  458.56   30.26
   5  10  -5   17.90    4.41
  -1  10  -5   56.41    4.41
  -1  11  -5   -7.68   15.51
   5  11  -5   21.59   16.99
   5  12  -5    9.54   19.12
   4  12  -5  204.50   14.41
   0  12  -5   19.16   19.58
  -1  12  -5  128.74    7.41
   0  13  -5   11.18    4.75
   1  13  -5    6.42   18.47
   3  13  -5  189.41   10.00
   4  13  -5   42.99    5.47
   4  14  -5  153.33   12.70
   3  14  -5   85.60    6.58
   2  14  -5 1130.02   53.10
   1  14  -5   68.76    5.63
   1  15  -5   23.22   20.45
   2  15  -5   -9.69   23.57
   3  15  -5   94.27    6.77
   0  18  -4  191.65   15.36
   1  18  -4  358.21   29.27
   2  18  -4  649.07   42.61
   3  18  -4    8.17   23.83
   4  17  -4   25.85   22.31
   3  17  -4   -2.47   21.70
   0  17  -4   26.61   20.98
  -1  17  -4    7.03   18.32
  -1  16  -4    5.63   18.66
   4  16  -4  429.56   26.11
   5  16  -4   32.96    5.13
   5  15  -4    5.44   17.33
  -2  15  -4   19.65   17.86
  -2  14  -4   57.32    4.64
   5  14  -4  123.46    7.41
   6  13  -4   41.39    4.83
  -2  13  -4   70.59    6.01
  -3  12  -4   48.62    4.30
   6  12  -4   17.29   17.64
  -3  11  -4  312.90   19.20
  -3  10  -4   64.54    4.22
   7   9  -4   53.29    4.98
   7   8  -4   68.38    4.71
   7   7  -4   20.49    4.18
  -4   7  -4  168.73   11.02
  -4   6  -4  401.28   24.36
   7   6  -4   14.90   14.14
  -4   5  -4    5.66   14.33
  -4   4  -4  298.27   19.31
  -4   3  -4   32.00    3.61
  -4   2  -4  380.37   23.68
  -4   1  -4   42.34    3.84
  -4   0  -4   16.69   13.04
   8   0  -3    0.27   15.81
   8   1  -3   25.35   17.07
   8   2  -3  416.63   27.98
   8   3  -3  629.87   31.93
   8   4  -3    6.16   14.63
  -5   5  -3  131.71    8.40
   8   5  -3  139.38   10.83
  -5   6  -3  -10.19   13.68
  -5   7  -3  698.71   30.56
  -5   8  -3  266.83   18.74
  -5   9  -3  372.73   24.67
   7  10  -3   78.64    5.70
   7  11  -3    8.86   16.91
   7  12  -3   44.40    4.71
  -4  12  -3   31.28   16.91
  -4  13  -3   -4.30   14.41
   6  14  -3  379.54   28.66
  -3  15  -3  516.60   30.22
   6  15  -3  449.32   30.45
  -3  16  -3   10.72   16.42
   5  17  -3   68.95    6.04
   5  18  -3  162.46   10.83
   4  18  -3  271.51   17.90
  -2  18  -3  119.01    9.24
  -1  19  -3   83.21    6.54
   4  19  -3  200.09   17.18
   3  20  -3  419.56   30.64
   2  20  -3   -2.81   23.07
   1  20  -3  725.20   44.36
   0  20  -3  186.59   13.42
  -1  20  -3  261.78   15.36
   0  21  -3   43.37   23.00
   1  21  -3   84.23    7.34
   2  21  -3    8.78   24.52
  -1  22  -2  132.92    7.87
   0  22  -2  -15.62   21.74
   1  22  -2 1946.68   64.81
   2  22  -2  142.88   11.25
   3  21  -2  175.99   11.86
  -1  21  -2   23.00   21.36
  -2  21  -2   64.09    7.56
  -2  20  -2  102.86    6.01
   4  20  -2  520.52   35.88
   5  19  -2  217.53   17.10
  -3  19  -2   -0.15   16.38
  -3  18  -2   26.99    4.60
   5  18  -2   91.87    6.84
  -4  17  -2  -44.70   16.72
  -4  16  -2  187.47   14.14
   6  16  -2   97.19    5.44
   6  15  -2   27.79   17.10
  -5  14  -2   27.82    4.22
   7  13  -2   46.22    4.79
  -5  13  -2   77.96    4.87
  -5  12  -2   -8.06   14.41
   7  12  -2  -17.67   15.96
   7  11  -2  871.62   37.67
  -6   9  -2   74.16    4.26
  -6   8  -2   11.71   14.48
  -6   7  -2  713.27   31.28
  -6   6  -2  175.57   11.86
   8   6  -2  221.56   14.52
   8   5  -2   23.49   14.60
  -6   5  -2    3.92   13.84
   8   4  -2   41.43    4.30
   8   3  -2   11.25   15.43
   8   2  -2   32.69    4.07
   8   1  -2   45.31    4.22
   8   0  -2  720.80   33.07
   8   0  -1  -16.65   14.33
  -7   0  -1   -3.76   12.47
  -7   1  -1  113.92    8.67
   8   1  -1  155.01   11.10
   8   2  -1   90.73    7.94
  -7   2  -1   38.35    3.53
  -7   3  -1   92.82    6.80
   8   3  -1   37.93    4.26
   8   4  -1   17.75   15.81
  -7   4  -1   19.42   14.22
  -7   5  -1   24.14   11.78
   8   5  -1   16.34    4.18
  -7   6  -1   46.91    4.18
   7  10  -1  115.89    8.51
  -6  11  -1    7.41   13.38
   7  11  -1   25.28    4.30
   7  12  -1  -17.79   16.61
  -6  12  -1   24.74   14.71
  -6  13  -1  259.76   21.32
  -5  15  -1   22.01   16.50
   6  15  -1   31.51   16.19
   6  16  -1  -27.06   16.84
  -5  16  -1  172.23   11.02
  -5  17  -1  233.39   13.99
   5  18  -1  190.81   14.29
  -4  18  -1  150.18    9.12
  -4  19  -1  296.10   19.73
   5  19  -1  507.56   34.06
   4  20  -1  147.75    9.50
  -3  20  -1  198.53   14.60
  -3  21  -1  257.45   19.46
   3  21  -1  374.48   24.36
   4  21  -1  140.41    9.05
   3  22  -1    7.15   20.64
   2  22  -1  112.89   11.25
  -1  22  -1   40.18   20.45
  -2  22  -1  249.88   17.14
  -1  23  -1  621.13   39.30
   0  23  -1  809.55   44.59
   1  23  -1   24.90   23.11
   2  23  -1   -3.08   22.39
   0  24   0 1548.82   58.27
   2  23   0   95.56    6.84
   1  23   0    9.43    6.01
   0  23   0   -2.24   24.40
  -1  23   0   41.24   22.54
  -2  23   0  110.08    8.25
  -3  22   0  120.46    8.63
  -2  22   0 2407.67   66.78
   2  22   0 2193.94   65.26
   3  22   0  106.73    6.16
   3  21   0  -16.88   19.27
  -3  21   0  -16.61   17.60
  -4  20   0  468.44   32.08
   4  20   0  570.92   33.60
  -5  18   0   53.79    4.68
   5  18   0   61.81    5.06
   5  17   0  562.52   33.26
  -5  17   0  563.43   31.24
   6  15   0  160.48    9.92
  -6  15   0  159.45   12.09
  -6  14   0  260.52   15.85
   6  14   0  232.70   16.65
  -7  11   0   24.33   16.88
  -7  10   0   17.10   14.82
   7  10   0   -6.69   14.90
   7   9   0   60.32    4.60
  -7   9   0   48.88    5.78
  -7   8   0  -14.18   13.72
   7   8   0    7.30   14.60
   4  11  -7   42.04    6.61
   3  11  -7    5.74   25.32
   2  11  -7   79.10    5.93
   1  10  -7  130.38    7.87
   2  10  -7   37.36   19.27
   3  10  -7  112.02    8.89
   4  10  -7   -4.87   22.27
   5  10  -7  112.82    7.83
   5   9  -7  104.91    6.04
   4   9  -7  234.26   16.72
   3   9  -7    0.65   20.15
   2   9  -7   39.42   19.20
   1   9  -7   39.30    5.02
   1   8  -7  166.14    9.81
   2   8  -7    5.09   19.20
   3   8  -7  546.90   35.35
   4   8  -7   17.90   17.29
   5   8  -7   67.89    5.55
   6   7  -7   65.11    5.70
   5   7  -7   -2.36   20.72
   4   7  -7  -48.27   22.35
   3   7  -7   15.93   20.26
   2   7  -7    6.08   18.85
   1   7  -7    6.65   18.21
   0   7  -7    6.65    4.83
   0   6  -7  118.78    8.78
   1   6  -7   92.59    6.27
   2   6  -7    4.18   20.22
   3   6  -7   28.96   23.72
   4   6  -7    0.00   22.08
   5   6  -7  136.61   12.51
   6   6  -7   10.53   19.46
   6   5  -7   -8.48   19.99
   5   5  -7   12.43   20.37
   4   5  -7  -20.26   23.03
   3   5  -7   22.46   23.53
   2   5  -7   42.19   18.36
   1   5  -7  -19.12   19.69
   0   5  -7    4.03   18.02
   0   4  -7    0.68   18.40
   1   4  -7  307.81   22.73
   2   4  -7   67.54    6.01
   3   4  -7   26.91   26.80
   4   4  -7   36.76   24.06
   5   4  -7  337.80   22.77
   6   4  -7   11.67   19.39
   6   3  -7  140.18    6.73
   5   3  -7   48.73   23.83
   4   3  -7    3.38   22.27
   3   3  -7   34.13   23.91
   2   3  -7   34.40   20.45
   1   3  -7   63.78    5.78
   0   3  -7   22.20   18.47
   0   2  -7   -3.23   19.54
   1   2  -7  151.78    9.84
   2   2  -7    4.07   22.35
   3   2  -7  541.92   39.68
   4   2  -7    2.43   22.96
   5   2  -7   93.81    7.15
   6   2  -7   30.67   22.77
   6   1  -7   24.59   23.95
   5   1  -7   51.88    6.46
   4   1  -7  104.99    8.63
   3   1  -7   57.36    6.80
   2   1  -7   38.47    6.42
   1   1  -7   56.14    5.89
   0   1  -7   40.06   21.82
   0   0  -7   41.70   19.54
   1   0  -7   23.49   22.24
   2   0  -7   19.31   23.68
   3   0  -7   26.19   26.00
   4   0  -7   -5.59    5.74
   5   0  -7    1.33   21.55
   6   0  -7    5.36   21.82
   8   0  -6   15.85   18.74
   7   0  -6   13.87   18.63
   6   0  -6    1.48   18.17
  -1   0  -6   95.56    7.91
  -2   0  -6   65.45    4.94
  -3   0  -6  159.19   11.29
  -3   1  -6   -2.28   17.33
  -2   1  -6  194.69   14.56
  -1   1  -6   -4.30   15.85
   6   1  -6  -10.80   17.45
   7   1  -6  266.99   17.52
   8   1  -6   -8.40   20.22
   8   2  -6   14.60   20.83
   7   2  -6   -2.58    4.87
   6   2  -6  109.13   11.25
  -1   2  -6   52.83    7.18
  -2   2  -6   40.06   19.54
  -3   2  -6    6.61   18.13
  -3   3  -6   32.23   18.40
  -2   3  -6    4.26   15.89
  -1   3  -6   26.57    4.49
   6   3  -6   -9.24   18.63
   7   3  -6   36.00   20.34
   8   3  -6   27.25   19.46
   8   4  -6   25.66   19.31
   7   4  -6   25.16   20.03
   6   4  -6   72.94    5.25
  -1   4  -6  126.73    9.69
  -2   4  -6   13.04   17.71
  -3   4  -6   58.23    4.98
  -3   5  -6   76.86    5.28
  -2   5  -6  393.68   28.01
  -1   5  -6  295.99   16.15
   0   5  -6   48.96    4.94
   6   5  -6   18.55   15.96
   7   5  -6  868.96   41.20
   8   5  -6  -14.25   19.50
   8   6  -6   -5.74   20.87
   7   6  -6    4.83   18.28
   6   6  -6  115.89    6.04
   5   6  -6  125.63    8.55
   0   6  -6   44.70    6.08
  -1   6  -6  257.07   18.21
  -2   6  -6   13.38   17.98
  -2   7  -6   61.16    4.90
  -1   7  -6   50.90    5.40
   0   7  -6  164.62   11.44
   5   7  -6  603.30   32.73
   6   7  -6   14.29    4.41
   7   7  -6   44.55   19.39
   7   8  -6   43.60   19.84
   6   8  -6   41.20    4.83
   5   8  -6   14.33   15.47
   1   8  -6  100.96    4.94
   0   8  -6  189.79   10.38
  -1   8  -6   -0.84   15.89
  -2   8  -6   13.46    4.49
  -2   9  -6    9.05    4.49
  -1   9  -6   11.71   16.23
   0   9  -6   32.35   17.03
   1   9  -6   16.80   18.47
   4   9  -6   58.88    5.36
   5   9  -6   98.07    6.92
   6   9  -6   18.74   18.25
   7   9  -6  -27.41   18.66
   7  10  -6   34.06   19.77
   6  10  -6   66.71    6.12
   5  10  -6   20.41   19.39
   4  10  -6  162.08    8.02
   3  10  -6  116.46    8.10
   2  10  -6   18.93   21.40
   1  10  -6  172.19   14.03
   0  10  -6  124.29    8.86
  -1  10  -6   30.45   17.98
  -2  10  -6   96.70    5.44
  -2  11  -6  251.40   15.28
  -1  11  -6   14.41   17.41
   0  11  -6  192.18   13.19
   1  11  -6   87.35    5.74
   2  11  -6  115.97    8.29
   3  11  -6  204.76   15.96
   4  11  -6  -21.25   20.94
   5  11  -6  429.48   26.04
   6  11  -6   18.36   18.78
   7  11  -6  267.52   20.83
   6  12  -6  131.52    6.50
   5  12  -6   61.54    5.82
   4  12  -6   55.61    6.54
   3  12  -6  290.59   22.05
   2  12  -6  324.80   23.15
   1  12  -6  175.57   10.15
   0  12  -6  -17.26   18.51
  -1  12  -6  291.01   17.98
  -1  13  -6   -5.97   19.58
   0  13  -6   26.84   17.83
   1  13  -6   12.43   23.45
   2  13  -6    6.80   20.49
   3  13  -6  311.42   17.86
   4  13  -6    1.14   20.79
   5  13  -6    2.36    5.32
   6  13  -6   29.91    5.59
   6  14  -6   32.04   20.37
   5  14  -6  -14.14   22.84
   4  14  -6   87.16    6.54
   3  14  -6   21.82   23.49
   2  14  -6   16.31   22.84
   1  14  -6   10.72   18.97
   0  14  -6   29.23   20.34
  -1  14  -6  -25.81   20.91
   0  15  -6   22.05    5.59
   1  15  -6   22.88   20.56
   2  15  -6   37.82   24.67
   3  15  -6  458.52   33.03
   4  15  -6   51.81   22.35
   5  15  -6  -38.28   21.59
   5  16  -6   16.15   22.35
   4  16  -6   -2.43   20.22
   3  16  -6   30.18   28.01
   2  16  -6   66.21    6.80
   1  16  -6  123.42    9.01
   0  16  -6   -3.69   21.78
   1  17  -6  200.01   11.06
   2  17  -6   25.85   25.09
   3  17  -6  -15.47   28.28
   4  17  -6  -18.93   25.51
   3  21  -5  143.60   10.80
   2  21  -5   93.92    7.60
   1  21  -5    5.66   23.07
   0  20  -5  238.36   15.77
   1  20  -5  -28.01   23.68
   2  20  -5  595.70   40.18
   3  20  -5    1.63   25.85
   4  20  -5  238.78   15.47
   5  19  -5  165.84   12.70
   4  19  -5   41.66    6.42
   3  19  -5  -13.95   27.44
   2  19  -5   40.14   28.85
   1  19  -5   69.56    6.92
   0  19  -5  326.78   19.42
  -1  19  -5  -15.28   20.60
  -1  18  -5  149.42   12.24
   0  18  -5  175.11   11.63
   1  18  -5   23.34    6.08
   2  18  -5  215.75   15.24
   3  18  -5  224.34   15.96
   4  18  -5  253.34   20.68
   5  18  -5  -15.89   19.88
   6  18  -5  -20.87   19.99
   6  17  -5   23.26   22.58
   5  17  -5   39.07   18.93
   4  17  -5    5.55   20.26
   3  17  -5  -10.91   25.66
   2  17  -5  198.11   14.25
   1  17  -5    8.17   20.60
   0  17  -5    4.22   20.41
  -1  17  -5    2.24   22.96
  -2  17  -5   32.46   19.12
  -2  16  -5   17.14   20.37
  -1  16  -5   61.05    5.55
   0  16  -5  178.08   12.58
   1  16  -5  281.89   17.41
   2  16  -5    5.21    6.20
   3  16  -5   36.79   25.70
   4  16  -5  188.38   11.21
   5  16  -5  129.24    6.65
   6  16  -5    3.38    5.25
   7  15  -5  110.72    8.74
   6  15  -5  130.03    7.22
   5  15  -5  217.53   14.94
   4  15  -5   -2.74   21.29
   0  15  -5  149.99   10.07
  -1  15  -5  -11.67   17.71
  -2  15  -5   58.73    5.25
  -3  14  -5  125.25    8.40
  -2  14  -5  234.56   20.11
  -1  14  -5   99.21    7.18
   0  14  -5  239.96   13.34
   5  14  -5  132.81    9.12
   6  14  -5  314.77   23.49
   7  14  -5    7.34    5.40
   7  13  -5  267.14   19.73
   6  13  -5    4.18    4.90
   5  13  -5   67.77    5.51
  -1  13  -5   54.58    4.75
  -2  13  -5  428.53   26.61
  -3  13  -5   21.48   16.53
  -3  12  -5   10.00   16.34
  -2  12  -5   53.94    4.68
   6  12  -5   22.05   18.70
   7  12  -5   86.78    6.58
   8  12  -5   67.09    6.88
   8  11  -5   60.66    7.91
   7  11  -5  119.01    6.96
   6  11  -5   -2.32   15.81
  -2  11  -5  307.16   17.56
  -3  11  -5   -9.69   15.70
  -4  10  -5   -4.71   18.02
  -3  10  -5   32.08   15.28
  -2  10  -5  129.24   10.07
   6  10  -5   48.08    4.79
   7  10  -5   -0.34    4.68
   8  10  -5  -25.92   18.06
   8   9  -5  -11.97   17.29
   7   9  -5   60.86    5.02
  -2   9  -5   11.82   14.37
  -3   9  -5  -19.50   15.93
  -4   9  -5  625.08   34.78
  -4   8  -5   90.28    6.31
  -3   8  -5    9.24   15.43
   7   8  -5  217.42   14.75
   8   8  -5  207.31   14.75
   8   7  -5   39.15    5.13
   7   7  -5  198.64   13.95
  -3   7  -5  -12.32   14.22
  -4   7  -5   44.85    4.49
  -4   6  -5  -10.26   14.60
  -3   6  -5  180.74   10.41
   7   6  -5   34.86    4.45
   8   6  -5   35.81   17.29
   9   5  -5    0.49   18.63
   8   5  -5   20.18   17.94
   7   5  -5   74.08    5.09
  -3   5  -5   13.19   14.25
  -4   5  -5   -5.78   15.77
  -4   4  -5   61.96    4.49
  -3   4  -5  232.93   15.43
   8   4  -5   -4.49   16.99
   9   4  -5  189.10   14.75
   9   3  -5   79.56    5.70
   8   3  -5  173.44   10.11
  -3   3  -5   23.76   14.90
  -4   3  -5  176.10   12.43
  -4   2  -5   61.39    4.75
  -3   2  -5   18.21   14.67
   8   2  -5  199.90   11.97
   9   2  -5  119.73    9.43
   9   1  -5  153.75   10.57
   8   1  -5   -2.96    4.64
  -3   1  -5    7.87   13.57
  -4   1  -5  506.99   30.64
  -4   0  -5   10.38   15.39
  -3   0  -5  -15.89   14.25
   8   0  -5    5.78   18.02
   9   0  -5   24.29   18.93
   9   0  -4  -13.00   17.79
   8   0  -4   25.62   16.53
  -5   0  -4  245.40   18.63
  -6   0  -4  405.50   26.38
  -6   1  -4   25.89   15.32
  -5   1  -4   99.74    8.36
   8   1  -4  375.51   23.38
   9   1  -4   24.06   16.50
   9   2  -4  138.21    8.36
   8   2  -4   21.51   16.34
  -5   2  -4    2.70   14.67
  -6   2  -4   33.15   16.65
  -6   3  -4  -10.19   15.58
  -5   3  -4   95.10    5.32
   8   3  -4   72.45    4.83
   9   3  -4   15.43   18.40
   9   4  -4   20.41    4.83
   8   4  -4   18.70   17.71
  -5   4  -4   31.36   15.39
  -6   4  -4   15.74   16.50
  -6   5  -4   29.57    4.41
  -5   5  -4  838.70   36.00
   8   5  -4 1052.67   41.51
   9   5  -4  -16.27   18.09
   9   6  -4   99.25    7.34
   8   6  -4   29.08   16.46
  -5   6  -4   58.80    4.45
  -5   7  -4   38.54    4.22
   8   7  -4  142.20   11.56
   9   7  -4    2.24   17.83
   9   8  -4   24.25    5.06
   8   8  -4   -8.06   16.38
  -4   8  -4   17.03    3.76
  -5   8  -4   20.68   14.52
  -5   9  -4    7.68   15.81
  -4   9  -4   10.57   13.84
   8   9  -4   33.79   18.47
   9   9  -4   -0.49   17.56
   8  10  -4   16.95   16.88
  -4  10  -4   12.05   15.39
  -5  10  -4  162.46   13.65
  -5  11  -4  233.77   15.96
  -4  11  -4   34.55   18.21
   7  11  -4    4.14    4.41
   8  11  -4  481.86   31.09
   8  12  -4   -3.31   18.09
   7  12  -4   60.17    5.02
  -4  12  -4  464.87   29.15
  -5  12  -4   24.06   18.32
  -5  13  -4  246.61   18.40
  -4  13  -4   -1.75   15.24
  -3  13  -4    3.69   13.76
   7  13  -4   47.36    5.09
   8  13  -4  301.23   20.98
   8  14  -4   12.92   18.93
   7  14  -4   21.63   19.12
   6  14  -4   -2.62   17.71
  -3  14  -4   65.15    4.79
  -4  14  -4   58.19    4.98
  -4  15  -4   41.36   18.59
  -3  15  -4   41.36    4.71
   6  15  -4   -3.99   18.32
   7  15  -4   23.19   21.10
   7  16  -4   10.22   18.44
   6  16  -4   64.92    6.16
  -2  16  -4  354.64   24.25
  -3  16  -4  -23.22   17.07
  -4  16  -4  210.43   12.77
  -3  17  -4  572.17   34.06
  -2  17  -4   64.47    6.65
   5  17  -4   -0.57   18.36
   6  17  -4  942.85   44.85
   7  17  -4    9.54    5.32
   7  18  -4   42.23    5.78
   6  18  -4   61.73    5.93
   5  18  -4  106.54    6.12
   4  18  -4  135.85    6.96
  -1  18  -4   10.22   18.51
  -2  18  -4  348.25   25.16
  -3  18  -4   14.41   19.61
  -3  19  -4  -24.52   18.36
  -2  19  -4  120.57    9.65
  -1  19  -4  181.12   11.86
   0  19  -4   -0.95   19.99
   1  19  -4   29.65   22.65
   2  19  -4  -13.68   24.48
   3  19  -4  -21.78   23.64
   4  19  -4  168.46   14.10
   5  19  -4   65.76    5.85
   6  19  -4  -16.31   19.23
   6  20  -4   30.67    5.66
   5  20  -4    5.25   19.20
   4  20  -4   -6.01   22.20
   3  20  -4  394.85   29.46
   2  20  -4   94.99    7.11
   1  20  -4   -7.56   23.00
   0  20  -4    7.68    5.47
  -1  20  -4  225.29   17.64
  -2  20  -4  144.40    8.29
  -2  21  -4   51.09   21.36
  -1  21  -4   62.72    6.20
   0  21  -4   64.16    6.46
   1  21  -4  112.06    7.41
   2  21  -4  157.33   11.33
   3  21  -4   90.81   10.30
   4  21  -4  103.31    7.30
   5  21  -4   11.59   21.89
   5  22  -4   84.80    7.37
   4  22  -4  276.76   20.37
   3  22  -4  145.28   12.01
   2  22  -4  117.87    9.92
   1  22  -4   84.54    7.18
   0  22  -4  586.62   41.70
  -1  22  -4   -1.18   21.70
   0  23  -4  -15.09   26.38
   1  23  -4  -44.36   22.50
   2  23  -4   19.69    7.03
   3  23  -4  -12.62   28.17
   4  23  -4  402.34   25.13
   3  24  -4   -5.51    6.80
   2  24  -4  279.19   17.26
   1  24  -4  282.65   19.12
   1  26  -3  216.66   12.32
   2  26  -3  405.35   22.81
   3  25  -3    2.62   24.52
   2  25  -3  123.46   11.63
   1  25  -3  159.07   10.26
   0  25  -3   88.98    7.22
  -1  25  -3  101.11    6.92
  -2  24  -3  121.75    8.25
  -1  24  -3   90.09    7.30
   0  24  -3   52.61   26.00
   1  24  -3  142.77    9.65
   2  24  -3  285.54   23.26
   3  24  -3  230.31   13.27
   4  24  -3   21.70   22.12
   5  23  -3   18.93   19.61
   4  23  -3   65.07    6.50
   3  23  -3  392.19   23.60
   2  23  -3   67.62    7.03
   1  23  -3  -18.74   26.15
   0  23  -3  121.98   10.83
  -1  23  -3  253.57   16.95
  -2  23  -3  200.81   13.19
  -3  22  -3   31.43   20.49
  -2  22  -3  -33.30   19.58
  -1  22  -3   21.36   22.35
   0  22  -3  320.32   22.92
   1  22  -3   27.94    6.46
   2  22  -3   44.02    6.61
   3  22  -3   78.42    6.73
   4  22  -3   99.70    8.21
   5  22  -3    9.05   19.96
   6  21  -3   26.84   22.12
   5  21  -3  355.74   22.77
   4  21  -3  226.66   15.74
   3  21  -3  100.01   10.15
  -1  21  -3  509.15   35.12
  -2  21  -3   14.44   18.93
  -3  21  -3   28.20   20.11
  -4  20  -3    6.46   18.63
  -3  20  -3  173.71   13.19
  -2  20  -3  -21.29   18.36
   4  20  -3   38.58    5.40
   5  20  -3  135.51    8.97
   6  20  -3    7.18   20.49
   7  19  -3   60.25    5.89
   6  19  -3  330.58   22.50
   5  19  -3  217.72   14.25
  -2  19  -3   10.49   18.93
  -3  19  -3  867.93   42.57
  -4  19  -3   74.46    5.40
  -4  18  -3   64.31    5.21
  -3  18  -3    6.23    4.56
   6  18  -3   41.17   18.97
   7  18  -3    2.58   18.97
   7  17  -3   87.77    7.79
   6  17  -3   11.90   21.40
  -3  17  -3   15.09   16.76
  -4  17  -3   15.17   17.29
  -5  17  -3   56.37    5.13
  -5  16  -3   67.13    5.09
  -4  16  -3  159.11    8.67
   6  16  -3  191.88   13.38
   7  16  -3   -0.53   18.28
   8  16  -3  109.85   10.26
   8  15  -3  224.60   18.28
   7  15  -3  139.31   11.78
  -4  15  -3   -7.37   14.98
  -5  15  -3  364.26   26.80
  -5  14  -3  -25.13   16.23
  -4  14  -3  147.44   14.33
   7  14  -3  271.66   20.64
   8  14  -3   32.04   19.77
   8  13  -3  371.48   28.66
   7  13  -3   23.45   17.64
  -5  13  -3  631.13   32.92
  -6  13  -3   37.67   17.83
  -6  12  -3   11.75   15.47
  -5  12  -3   45.61    4.45
   8  12  -3   84.76    8.51
   9  11  -3  114.64    7.75
   8  11  -3  101.03    7.83
  -5  11  -3  208.18   16.19
  -6  11  -3  -17.29   15.24
  -6  10  -3   27.56   15.62
  -5  10  -3   10.76   14.75
   8  10  -3   55.65    4.94
   9  10  -3  -17.86   17.94
   9   9  -3  -49.07   19.04
   8   9  -3  197.54   15.24
  -6   9  -3   61.43    4.71
  -6   8  -3   23.91   14.33
   8   8  -3  463.20   29.15
   9   8  -3   63.78    5.78
   9   7  -3   10.11   16.19
   8   7  -3  285.57   16.50
  -6   7  -3   52.49    4.26
  -7   6  -3   55.08    4.75
  -6   6  -3  112.47    8.25
   8   6  -3   32.58   16.72
   9   6  -3   14.90   17.03
   9   5  -3    3.73   16.50
  -6   5  -3   17.75   15.01
  -7   5  -3   48.24    4.64
  -7   4  -3   -6.61   17.10
  -6   4  -3  193.17   13.49
   9   4  -3   38.28   17.48
   9   3  -3   57.97    4.90
  -6   3  -3   26.65   14.22
  -7   3  -3  240.91   16.42
  -7   2  -3   24.17    4.37
  -6   2  -3    3.12   15.05
   9   2  -3   39.07    4.71
   9   1  -3   55.38    4.90
  -6   1  -3   50.36    5.02
  -7   1  -3  322.14   21.86
  -7   0  -3   -2.51   15.28
  -6   0  -3    5.66   13.46
   9   0  -3    7.53   16.19
   9   0  -2   -5.51   17.14
  -7   0  -2   77.24    4.41
  -8   0  -2  212.02   15.17
  -8   1  -2   20.87   16.08
  -7   1  -2   73.09    5.89
   9   1  -2  191.57   13.00
   9   2  -2   10.03   16.53
  -7   2  -2  150.33   11.59
  -8   2  -2   62.95    4.75
  -8   3  -2   37.59    4.45
  -7   3  -2   13.87   14.98
   9   3  -2   35.62    4.60
   9   4  -2   39.87    4.60
  -7   4  -2   47.97    5.21
  -8   4  -2  124.56    9.43
  -7   5  -2  174.01   13.53
   9   5  -2  514.59   33.37
   9   6  -2   -6.08   18.21
  -7   6  -2  121.03   10.15
  -7   7  -2   68.91    4.45
   8   7  -2   88.98    7.68
   9   7  -2   15.13   16.34
   9   8  -2  -29.15   17.03
   8   8  -2  105.82    7.03
  -7   8  -2   86.28    5.40
  -7   9  -2    5.13    3.95
   8   9  -2   -5.36   15.32
   9   9  -2   11.52   16.88
   9  10  -2  -11.78   17.90
   8  10  -2  465.78   29.53
  -6  10  -2  164.62   11.21
  -7  10  -2   -7.91   14.75
  -7  11  -2   50.44    5.17
  -6  11  -2  260.03   17.79
   8  11  -2   -5.70   17.60
   9  11  -2  257.64   17.45
   8  12  -2   12.96    4.56
  -6  12  -2   43.86    4.41
  -7  12  -2  227.15   16.08
  -7  13  -2   62.41    5.06
  -6  13  -2    4.94   14.98
   8  13  -2  -17.33   18.21
   8  14  -2  -14.60   18.78
   7  14  -2   10.99   18.06
  -6  14  -2    3.19   15.70
  -6  15  -2   62.79    4.90
  -5  15  -2  -20.72   15.96
   7  15  -2   10.95   18.32
   8  15  -2   71.16    5.47
   8  16  -2   47.21    5.32
   7  16  -2   60.09    5.17
  -5  16  -2  162.61   11.29
  -6  16  -2   56.75    5.93
  -6  17  -2  456.66   27.18
  -5  17  -2   78.91    4.98
   6  17  -2    4.68   17.56
   7  17  -2  662.87   38.43
   7  18  -2   32.61   22.16
   6  18  -2   42.69    5.25
  -4  18  -2   16.69   17.03
  -5  18  -2  339.32   23.87
  -5  19  -2   61.50    5.09
  -4  19  -2  237.19   18.51
   6  19  -2  212.97   12.43
   7  19  -2   25.16   18.51
   7  20  -2   51.58   21.89
   6  20  -2   -4.30   19.73
   5  20  -2   16.80    5.09
  -3  20  -2   76.74    5.25
  -4  20  -2  121.29    6.80
  -5  20  -2  297.51   19.65
  -4  21  -2   14.06   18.85
  -3  21  -2   16.69   17.52
   4  21  -2   33.53   19.01
   5  21  -2    7.60   20.64
   6  21  -2  -19.20   19.27
   6  22  -2  150.48    9.50
   5  22  -2  360.99   24.10
   4  22  -2   37.55   19.84
   3  22  -2   96.93    6.96
  -2  22  -2   -4.07   20.37
  -3  22  -2  933.16   44.66
  -4  22  -2   20.79   18.13
  -4  23  -2  249.77   15.62
  -3  23  -2   26.61   18.70
  -2  23  -2   18.78   20.26
  -1  23  -2   18.13    5.66
   0  23  -2  396.87   26.49
   1  23  -2  190.59   15.66
   2  23  -2    7.83   24.40
   3  23  -2   57.81   22.43
   4  23  -2  -25.85   20.11
   5  23  -2  386.72   28.89
   5  24  -2  -46.68   19.61
   4  24  -2  -14.75   21.67
   3  24  -2  214.19   14.79
   2  24  -2  220.84   15.55
   1  24  -2   37.02   23.03
   0  24  -2   68.84    8.40
  -1  24  -2  433.66   35.50
  -2  24  -2  125.17    8.21
  -3  24  -2  -19.77   20.07
  -2  25  -2  215.52   11.63
  -1  25  -2   22.50   24.06
   0  25  -2  195.41    7.87
   1  25  -2   98.52    7.18
   2  25  -2   48.69   28.43
   3  25  -2   98.26    7.45
   4  25  -2  261.93   17.29
   3  26  -2   24.52   28.36
   2  26  -2  197.24   11.52
   1  26  -2   74.23    7.30
   0  26  -2  118.44    9.77
  -1  26  -2   88.53    7.18
  -2  26  -2   88.41    6.99
   0  27  -2   61.92    7.11
   1  27  -2  -14.29   25.58
   2  27  -2  320.01   19.92
   0  28  -1   14.63   25.70
   1  28  -1  305.83   22.92
   3  27  -1   20.18   23.72
   2  27  -1   -1.63    6.42
   1  27  -1  -31.24   25.47
   0  27  -1    4.07   25.51
  -1  27  -1  -28.81   24.14
  -2  27  -1   25.62   26.87
  -3  26  -1  -11.29   21.74
  -2  26  -1   34.48   22.65
  -1  26  -1  530.40   37.29
   0  26  -1  770.59   45.61
   1  26  -1   37.86   25.43
   2  26  -1   51.69    6.80
   3  26  -1  346.05   23.53
   4  26  -1  129.65   10.45
   4  25  -1    0.61   22.65
   3  25  -1  275.16   19.27
   2  25  -1  123.95    8.02
   1  25  -1  542.11   32.08
   0  25  -1  124.22    9.77
  -1  25  -1  108.37    7.68
  -2  25  -1  492.96   30.75
  -3  25  -1   81.84    7.53
  -4  24  -1   15.47   20.11
  -3  24  -1  107.49   11.82
  -2  24  -1  291.05   21.78
  -1  24  -1   24.33    5.97
   0  24  -1  -10.80   22.43
   1  24  -1  285.57   22.43
   2  24  -1  265.81   17.14
   3  24  -1  210.08   14.94
   4  24  -1   15.81   21.44
   5  24  -1   59.30    6.04
   5  23  -1   -1.37   19.08
   4  23  -1  265.66   19.16
   3  23  -1  155.27   10.64
  -2  23  -1   24.29    5.59
  -3  23  -1   36.57   20.15
  -4  23  -1  140.87    7.79
  -5  22  -1   20.41   18.25
  -4  22  -1   13.23   18.06
  -3  22  -1   36.49   19.04
   4  22  -1   15.09   18.59
   5  22  -1   34.51   21.86
   6  22  -1  -14.63   18.89
   6  21  -1  260.07   17.48
   5  21  -1  202.14   15.62
  -4  21  -1  575.71   36.22
  -5  21  -1  -12.70   17.37
  -6  20  -1  -15.74   17.26
  -5  20  -1    2.13   17.60
  -4  20  -1    8.82   17.03
   5  20  -1   -3.38   18.59
   6  20  -1   32.20   20.60
   7  19  -1  256.53   19.54
   6  19  -1  127.91    6.80
  -5  19  -1   35.84   17.10
  -6  19  -1  501.21   31.43
  -6  18  -1   48.69    5.02
  -5  18  -1  108.63    8.86
   6  18  -1    9.20   17.33
   7  18  -1   28.32   19.04
   7  17  -1   25.20   20.18
   6  17  -1   -4.11   17.52
  -6  17  -1  -12.77   16.42
  -7  16  -1    7.34   18.28
  -6  16  -1  158.58   12.47
   7  16  -1  118.48    6.96
   8  16  -1   27.60   19.92
   8  15  -1   12.16    4.90
   7  15  -1  279.15   21.32
  -6  15  -1  471.22   30.48
  -7  15  -1  -17.18   17.10
  -7  14  -1   21.78   17.83
  -6  14  -1  191.00   11.44
   7  14  -1  471.29   32.00
   8  14  -1   24.36   18.06
   8  13  -1  130.87    8.48
   7  13  -1  485.89   30.71
  -7  13  -1   28.58   17.18
  -7  12  -1    6.65   14.25
   8  12  -1   34.78   18.51
   8  11  -1   20.87   17.75
  -7  11  -1  320.51   21.97
  -8  11  -1   25.73   19.80
  -8  10  -1   64.54    4.71
  -7  10  -1   -6.84   14.75
   8  10  -1   18.21   15.55
   9  10  -1   37.48   20.83
   9   9  -1  250.07   17.26
   8   9  -1   95.90    5.02
  -7   9  -1   72.33    5.89
  -8   9  -1  286.98   15.62
  -8   8  -1   17.79   16.08
  -7   8  -1    0.15    3.53
   8   8  -1   15.66   16.00
   9   8  -1  310.93   20.87
   9   7  -1  163.37   10.68
   8   7  -1   48.16    4.37
  -8   7  -1  249.50   21.32
  -8   6  -1  137.03   10.99
   8   6  -1   15.05    4.03
   9   6  -1   53.44    4.90
   9   5  -1   24.55   16.84
  -8   5  -1   58.31    5.02
  -8   4  -1  326.82   21.10
   9   4  -1   22.05   16.91
   9   3  -1  484.14   29.38
  -8   3  -1  491.55   30.10
  -8   2  -1  -12.85   14.63
   9   2  -1  385.24   23.91
   9   1  -1  119.28    7.41
  -8   1  -1   85.71    6.88
  -8   0  -1  -21.48   14.29
   9   0  -1    5.97   17.71
   9   0   0  537.85   32.50
   8   0   0  491.63   29.46
  -8   0   0  449.63   26.34
  -9   0   0  439.17   29.04
  -9   1   0   27.48   17.26
  -8   1   0  431.88   27.14
   8   1   0  483.38   28.36
   9   1   0   17.60   17.94
   9   2   0    3.57   15.89
   8   2   0    5.06   15.77
  -8   2   0    6.12    3.65
  -9   2   0   17.79   16.46
  -9   3   0   51.50    4.52
  -8   3   0   63.82    4.60
   8   3   0   59.56    4.45
   9   3   0   34.17   19.31
   9   4   0   39.53    4.83
   8   4   0   15.66   16.69
  -8   4   0   32.96    3.88
  -9   4   0   23.34   16.84
  -9   5   0   -4.64   16.42
   8   5   0  176.48   11.56
   9   5   0   12.13   18.66
   9   6   0  229.96   14.86
   8   6   0   -0.53    4.18
  -8   6   0  -12.62   13.68
  -9   6   0  212.94   13.30
  -9   7   0   78.64    5.06
  -8   7   0  411.81   26.04
   8   7   0  421.27   27.98
   9   7   0   68.19    5.36
   8   8   0   17.75    4.49
  -8   8   0   32.27   16.31
  -8   9   0   99.17    6.96
   8   9   0   90.92    6.54
   8  10   0  215.22   15.32
  -8  10   0  222.51   14.44
  -8  11   0  283.67   21.25
   7  11   0   24.02    4.26
   8  11   0  254.52   18.85
   8  12   0   18.59    4.90
   7  12   0  350.99   24.06
  -7  12   0  297.51   21.48
  -8  12   0   19.69   16.99
  -8  13   0   24.55   16.84
  -7  13   0  266.80   20.30
   7  13   0  292.45   19.96
   8  13   0   -2.96   17.86
   8  14   0   -7.98   16.69
   7  14   0   53.14    4.98
  -7  14   0   56.79    4.68
  -8  14   0   -5.09   16.84
  -7  15   0   46.07    4.60
   7  15   0   44.21    4.90
   7  16   0  170.93    9.62
   6  16   0  307.13   20.30
  -6  16   0  290.36   18.02
  -7  16   0  216.39   16.61
  -7  17   0    8.44    4.49
  -6  17   0  126.54   10.53
   6  17   0  150.60    9.62
   7  17   0   -2.58   17.67
   7  18   0   -3.04   18.40
   6  18   0  -19.99   17.79
  -6  18   0  -17.18   17.26
  -7  18   0   12.28   18.44
  -6  19   0   96.43    5.36
  -5  19   0    6.46   16.31
   5  19   0  -12.51   19.04
   6  19   0   81.57    8.17
   6  20   0    9.65   17.71
   5  20   0   92.78    5.63
  -5  20   0   89.59    6.80
  -6  20   0   17.18   16.42
  -6  21   0   42.99    6.39
  -5  21   0   23.49   17.48
  -4  21   0    1.86   19.61
   4  21   0   55.12    5.28
   5  21   0   35.08   18.55
   6  21   0   54.93    5.66
   5  22   0   47.93    5.70
   4  22   0   73.28    5.66
  -4  22   0   56.07    5.28
  -5  22   0   10.30   18.17
  -5  23   0    5.21   16.00
  -4  23   0   94.65    5.74
  -3  23   0  252.47   17.29
   3  23   0  210.39   15.51
   4  23   0  102.40    7.49
   5  23   0   28.28   19.16
   5  24   0   28.58    5.55
   4  24   0  175.19   12.81
   3  24   0  -35.92   21.06
   2  24   0   56.56    7.49
   1  24   0   67.66    6.77
  -1  24   0   84.76    6.61
  -2  24   0   67.16    6.12
  -3  24   0   -6.61   21.32
  -4  24   0  207.31   12.89
  -5  24   0   51.16   19.77
  -4  25   0  105.33    9.35
  -3  25   0   23.68   21.44
  -2  25   0   18.02   21.78
  -1  25   0  365.32   23.83
   0  25   0    0.00   24.52
   1  25   0  327.88   24.93
   2  25   0   50.14   21.59
   3  25   0   17.64   23.26
   4  25   0   90.01    9.62
   3  26   0   50.82   27.14
   2  26   0   90.92    6.88
   1  26   0  144.86   10.03
   0  26   0  299.56   19.73
  -1  26   0  164.81   12.05
  -2  26   0   82.64    8.67
  -3  26   0  103.65    7.68
  -2  27   0  -54.85   23.53
  -1  27   0  208.72   15.09
   0  27   0   15.09   24.82
   1  27   0  211.19   16.19
   2  27   0   13.68   24.17
   1  28   0    4.33   24.93
   0  28   0  851.06   47.67
  -1  28   0   15.17   23.26
   0   0   0    0.00    0.00
;
_shelx_hkl_checksum              86768
#END Tags that were not found in dictionaries
loop_
_space_group_symop_operation_xyz
'x, y, z'
'-x, y+1/2, -z+1/2'
'-x, -y, -z'
'x, -y-1/2, z-1/2'
loop_
_atom_site_label
_atom_site_type_symbol
_atom_site_fract_x
_atom_site_fract_y
_atom_site_fract_z
_atom_site_U_iso_or_equiv
_atom_site_adp_type
_atom_site_occupancy
_atom_site_site_symmetry_order
_atom_site_calc_flag
Se1 Se 0.26333(11) 0.54795(4) 0.09150(15) 0.0207(3) Uani 1 1 d
Se2 Se 0.50869(11) 0.65770(3) 0.47005(16) 0.0197(3) Uani 1 1 d
Se3 Se 0.03904(11) 0.66420(4) 0.25938(15) 0.0196(3) Uani 1 1 d
O1 O 0.4860(8) 0.5791(3) 0.3267(12) 0.0286(13) Uani 1 1 d
O2 O 0.2731(8) 0.6596(3) 0.5208(12) 0.0260(13) Uani 1 1 d
O3 O 0.1196(8) 0.6224(3) 0.0212(11) 0.0242(11) Uani 1 1 d
O4 O 0.3090(9) 0.5338(3) -0.1666(13) 0.0354(15) Uani 1 1 d
O5 O 0.1726(9) 0.4965(3) 0.2401(13) 0.0328(14) Uani 1 1 d
O6 O 0.6678(9) 0.6491(3) 0.7492(13) 0.0330(15) Uani 1 1 d
O7 O 0.5065(9) 0.7111(3) 0.2575(12) 0.0331(15) Uani 1 1 d
O8 O -0.1089(9) 0.6196(3) 0.3489(12) 0.0300(13) Uani 1 1 d
O9 O -0.0040(9) 0.7368(3) 0.1529(11) 0.0276(12) Uani 1 1 d
loop_
_atom_site_aniso_label
_atom_site_aniso_U_11
_atom_site_aniso_U_22
_atom_site_aniso_U_33
_atom_site_aniso_U_23
_atom_site_aniso_U_13
_atom_site_aniso_U_12
Se1 0.0233(4) 0.0110(4) 0.0250(5) -0.0019(3) 0.0043(3) 0.0011(3)
Se2 0.0185(4) 0.0117(4) 0.0275(5) -0.0016(3) 0.0060(3) -0.0003(2)
Se3 0.0189(4) 0.0149(4) 0.0254(5) 0.0015(3) 0.0078(3) 0.0027(2)
O1 0.025(3) 0.012(3) 0.043(3) -0.013(2) 0.003(2) 0.002(2)
O2 0.021(3) 0.031(3) 0.025(3) 0.002(2) 0.007(2) 0.000(2)
O3 0.022(2) 0.024(3) 0.026(3) 0.001(2) 0.008(2) 0.005(2)
O4 0.039(3) 0.030(4) 0.039(4) 0.000(3) 0.015(3) 0.012(3)
O5 0.033(3) 0.022(3) 0.041(4) 0.010(3) 0.010(3) -0.005(2)
O6 0.025(3) 0.029(3) 0.036(4) -0.009(3) 0.000(3) 0.005(2)
O7 0.031(3) 0.021(3) 0.050(4) 0.014(3) 0.018(3) 0.000(3)
O8 0.027(3) 0.026(3) 0.040(4) 0.004(3) 0.015(2) -0.002(2)
O9 0.041(3) 0.016(3) 0.027(3) 0.008(2) 0.014(2) 0.010(2)
loop_
_atom_type_symbol
_atom_type_description
_atom_type_scat_dispersion_real
_atom_type_scat_dispersion_imag
_atom_type_scat_source
O O 0.0106 0.0060 'International Tables Vol C Tables 4.2.6.8 and 6.1.1.4'
Se Se -0.0929 2.2259 'International Tables Vol C Tables 4.2.6.8 and 6.1.1.4'
loop_
_geom_angle_atom_site_label_1
_geom_angle_atom_site_label_2
_geom_angle_atom_site_label_3
_geom_angle
O4 Se1 O5 125.4(4)
O4 Se1 O1 108.7(3)
O5 Se1 O1 105.7(3)
O4 Se1 O3 103.4(3)
O5 Se1 O3 111.8(3)
O1 Se1 O3 98.8(2)
O6 Se2 O7 128.2(4)
O6 Se2 O1 105.1(3)
O7 Se2 O1 108.3(3)
O6 Se2 O2 104.3(3)
O7 Se2 O2 108.8(3)
O1 Se2 O2 98.1(3)
O9 Se3 O8 126.0(3)
O9 Se3 O2 110.9(3)
O8 Se3 O2 104.3(3)
O9 Se3 O3 103.8(3)
O8 Se3 O3 110.9(3)
O2 Se3 O3 97.3(3)
Se2 O1 Se1 124.8(3)
Se2 O2 Se3 122.3(4)
Se1 O3 Se3 122.3(3)
loop_
_geom_bond_atom_site_label_1
_geom_bond_atom_site_label_2
_geom_bond_distance
Se1 O4 1.573(7)
Se1 O5 1.578(6)
Se1 O1 1.770(5)
Se1 O3 1.780(6)
Se2 O6 1.567(6)
Se2 O7 1.582(6)
Se2 O1 1.755(5)
Se2 O2 1.764(6)
Se3 O9 1.569(5)
Se3 O8 1.571(6)
Se3 O2 1.779(6)
Se3 O3 1.794(6)
