#------------------------------------------------------------------------------
#$Date: 2016-03-24 00:12:42 +0200 (Thu, 24 Mar 2016) $
#$Revision: 179527 $
#$URL: svn://www.crystallography.net/cod/cif/4/34/24/4342497.cif $
#------------------------------------------------------------------------------
#
# This file is available in the Crystallography Open Database (COD),
# http://www.crystallography.net/
#
# All data on this site have been placed in the public domain by the
# contributors.
#
data_4342497
loop_
_publ_author_name
'Clarke, Samantha M.'
'Freedman, Danna E.'
_publ_section_title
;
 (BiSe)1.23CrSe2 and (BiSe)1.22(Cr1.2Se2)2: Magnetic Anisotropy in the
 First Structurally Characterized Bi-Se-Cr Ternary Compounds.
;
_journal_issue                   6
_journal_name_full               'Inorganic chemistry'
_journal_page_first              2765
_journal_page_last               2771
_journal_paper_doi               10.1021/ic5029178
_journal_volume                  54
_journal_year                    2015
_chemical_formula_moiety         '0.13(Bi8 Se8)'
_chemical_formula_sum            'Bi Se'
_chemical_formula_weight         287.94
_chemical_name_systematic        BiSe
_space_group_crystal_system      monoclinic
_space_group_IT_number           12
_space_group_name_Hall           '-C 2y'
_space_group_name_H-M_alt        'C 1 2/m 1'
_symmetry_space_group_name_Hall  '-C 2y'
_symmetry_space_group_name_H-M   'C 1 2/m 1'
_atom_sites_solution_primary     direct
_audit_creation_date             2014-10-28
_audit_creation_method
;
Olex2 1.2
(compiled 2014.09.19 svn.r3010 for OlexSys, GUI svn.r4874)
;
_cell_angle_alpha                90
_cell_angle_beta                 95.002(19)
_cell_angle_gamma                90
_cell_formula_units_Z            4
_cell_length_a                   6.1654(18)
_cell_length_b                   5.8669(12)
_cell_length_c                   11.489(3)
_cell_measurement_reflns_used    443
_cell_measurement_temperature    250(2)
_cell_measurement_theta_max      21.14
_cell_measurement_theta_min      4.80
_cell_volume                     413.99(18)
_computing_molecular_graphics    'Olex2 (Dolomanov et al., 2009)'
_computing_publication_material  'Olex2 (Dolomanov et al., 2009)'
_computing_structure_refinement  'XL (Sheldrick, 2008)'
_computing_structure_solution    'ShelXT (Sheldrick, 2008)'
_diffrn_ambient_temperature      250.0
_diffrn_detector                 'Bruker APEX2 area detector'
_diffrn_detector_area_resol_mean 7.9
_diffrn_detector_type            'CCD area detector'
_diffrn_measured_fraction_theta_full 0.680
_diffrn_measured_fraction_theta_max 0.684
_diffrn_measurement_device       'three-circle diffractometer'
_diffrn_measurement_device_type  'Bruker APEX-II CCD'
_diffrn_measurement_method       '\w and \f scans'
_diffrn_radiation_monochromator  'mirror optics'
_diffrn_radiation_probe          x-ray
_diffrn_radiation_type           MoK\a
_diffrn_radiation_wavelength     0.71073
_diffrn_reflns_av_R_equivalents  0.1471
_diffrn_reflns_av_unetI/netI     0.2363
_diffrn_reflns_Laue_measured_fraction_full 0.680
_diffrn_reflns_Laue_measured_fraction_max 0.684
_diffrn_reflns_limit_h_max       7
_diffrn_reflns_limit_h_min       -5
_diffrn_reflns_limit_k_max       7
_diffrn_reflns_limit_k_min       -7
_diffrn_reflns_limit_l_max       15
_diffrn_reflns_limit_l_min       -14
_diffrn_reflns_number            1391
_diffrn_reflns_point_group_measured_fraction_full 0.680
_diffrn_reflns_point_group_measured_fraction_max 0.684
_diffrn_reflns_theta_full        26.000
_diffrn_reflns_theta_max         28.117
_diffrn_reflns_theta_min         4.805
_diffrn_source                   'microfocus sealed X-ray tube'
_diffrn_source_type              'Incoatec I\ms'
_diffrn_standards_number         0
_exptl_absorpt_coefficient_mu    51.123
_exptl_absorpt_correction_T_max  0.7457
_exptl_absorpt_correction_T_min  0.3380
_exptl_absorpt_correction_type   multi-scan
_exptl_absorpt_process_details
'SADABS-2012/1 (Bruker,2012) was used for absorption correction. wR2(int) was 0.1018 before and 0.0493 after correction. The Ratio of minimum to maximum transmission is 0.4533. The \l/2 correction factor is 0.0015.'
_exptl_crystal_colour            'metallic grayish'
_exptl_crystal_colour_lustre     metallic
_exptl_crystal_colour_modifier   grayish
_exptl_crystal_density_diffrn    4.620
_exptl_crystal_description       plate
_exptl_crystal_F_000             468
_exptl_crystal_preparation       'Solid state annealing'
_exptl_crystal_recrystallization_method 'Salt Flux'
_exptl_crystal_size_max          0.05
_exptl_crystal_size_mid          0.05
_exptl_crystal_size_min          0.02
_refine_diff_density_max         3.718
_refine_diff_density_min         -3.185
_refine_diff_density_rms         0.803
_refine_ls_extinction_method     none
_refine_ls_goodness_of_fit_ref   1.083
_refine_ls_hydrogen_treatment    undef
_refine_ls_matrix_type           full
_refine_ls_number_parameters     13
_refine_ls_number_reflns         383
_refine_ls_number_restraints     3
_refine_ls_restrained_S_all      1.082
_refine_ls_R_factor_all          0.2438
_refine_ls_R_factor_gt           0.1233
_refine_ls_shift/su_max          0.000
_refine_ls_shift/su_mean         0.000
_refine_ls_structure_factor_coef Fsqd
_refine_ls_weighting_details
'w=1/[\s^2^(Fo^2^)+(0.1863P)^2^+44.9680P] where P=(Fo^2^+2Fc^2^)/3'
_refine_ls_weighting_scheme      calc
_refine_ls_wR_factor_gt          0.2999
_refine_ls_wR_factor_ref         0.3710
_reflns_Friedel_coverage         0.000
_reflns_number_gt                185
_reflns_number_total             383
_reflns_threshold_expression     'I > 2\s(I)'
_cod_data_source_file            ic5029178_si_002.cif
_cod_data_source_block           c2m
_cod_depositor_comments
'Adding full bibliography for 4342497--4342502.cif.'
_cod_original_cell_volume        413.98(17)
_cod_database_code               4342497
#BEGIN Tags that were not found in dictionaries:
_shelxl_version_number           2013-3
_shelx_space_group_comment
;
The symmetry employed for this shelxl refinement is uniquely defined
by the following loop, which should always be used as a source of
symmetry information in preference to the above space-group names.
They are only intended as comments.
;
_olex2_refinement_description
;
1. Rigid body (RIGU) restrains
 All non-hydrogen atoms
 with sigma for 1-2 distances of 0.004 and sigma for 1-3 distances of 0.004
;
_shelx_res_file
;
TITL c2m in C2/m #12
CELL 0.71073 6.1654 5.8669 11.4887 90 95.002 90
ZERR 4 0.0018 0.0012 0.0025 0 0.0194 0
LATT 7
SYMM -X,+Y,-Z

SFAC Bi Se
UNIT 4 4
RIGU

L.S. 50
PLAN  4
TEMP -23.15
REM Solution 1 R1 0.345 Rweak 0.276, Alpha = 0.1324 in C2/m
BOND
LIST 6
MORE -1
fmap 2 53
acta 52
REM <HKL>C:/Users/Samantha/Documents/XRD/smc64/work/bise_2/c2m/c2m.hkl</HKL>

WGHT    0.186300   44.968002
FVAR       0.08593
BI01  1    0.301846    0.500000    0.648231    10.50000    0.04544    0.05542 =
         0.05918    0.00000    0.01469    0.00000
SE02  2    0.231135    0.500000    0.402901    10.50000    0.02308    0.00689 =
         0.03731    0.00000    0.01434    0.00000
HKLF 4

REM  c2m in C2/m #12
REM R1 =  0.1233 for     185 Fo > 4sig(Fo)  and  0.2438 for all     383 data
REM     13 parameters refined using      3 restraints

END

WGHT      0.1879     39.7150

REM Highest difference peak  3.718,  deepest hole -3.185,  1-sigma level  0.803
Q1    1   0.1890  0.4320  0.7026  11.00000  0.05    3.72
Q2    1   0.4395  0.5000  0.7819  10.50000  0.05    3.49
Q3    1   0.5147  0.4384  0.9141  11.00000  0.05    3.08
Q4    1   0.1143  0.5000  0.4188  10.50000  0.05    2.76
;
_shelx_res_checksum              23461
_shelx_hkl_file
;
   1  -1   0   48.03    7.63
   1  -1   0   42.40    9.06
   1  -1   0   45.10    7.59
  -1   1   0   50.91    7.94
   3  -1   0   79.68   13.74
   3   1   0   66.47   14.07
   5  -1   0   53.73   11.81
   5   1   0   35.68   11.33
   7  -1   0   -6.04   17.23
   7   1   0    0.29   14.13
   0  -2   0  958.45  140.73
   0  -2   0  938.28  130.49
   0   2   0  996.49  125.46
   0   2   0  959.77  106.60
   0   2   0  986.22  130.44
   2  -2   0  580.04   75.79
   2  -2   0  584.96   85.30
  -2   2   0  582.48   78.76
   4  -2   0   94.07   18.51
   6  -2   0   12.34   14.25
   6   2   0    0.23   11.83
   1  -3   0   17.65    6.79
   1  -3   0   22.71    7.04
  -1  -3   0   24.74    7.90
  -1  -3   0   17.98    7.01
   1  -3   0   24.53    7.72
  -1   3   0   20.79    6.50
  -1   3   0   26.86    5.57
  -1   3   0   18.35    6.39
   1   3   0   27.55    6.69
   3  -3   0   87.74   17.87
   3  -3   0   58.12   12.14
  -3   3   0   58.04   12.62
   5  -3   0   20.38   10.36
   5  -3   0   26.04   13.83
   7  -3   0  -25.00   22.08
   0  -4   0  320.95   51.14
   0  -4   0  377.53   47.14
   0   4   0  318.83   45.11
   0   4   0  336.42   46.81
  -2  -4   0  247.02   35.58
   2  -4   0  193.28   30.14
   2  -4   0  205.31   34.58
   2  -4   0  207.78   29.72
   2   4   0  226.82   29.48
  -2   4   0  205.67   30.80
  -2   4   0  218.34   25.23
   4  -4   0   84.58   18.26
   4  -4   0   41.26   12.84
  -4   4   0   37.65   10.08
   6  -4   0   -1.02   19.91
   6  -4   0    4.22   11.05
   0  -6   0   60.20   18.18
   0   6   0   63.44   15.19
   2  -6   0   28.50   13.34
   2   6   0   50.28   15.47
  -2   6   0   53.44   14.14
   1  -7   0    6.51   13.58
  -1   7   0    1.29   12.90
   3  -7   0    1.03   11.96
  -3   7   0    5.17   16.98
   7  -1  -1   18.67   17.28
   5  -1  -1   54.38   11.26
   5   1  -1   32.70   10.54
   3  -1  -1   30.37    7.76
   3   1  -1   22.36    6.54
   1  -1  -1  109.14   16.81
   1  -1  -1  107.79   14.58
  -1   1   1  103.76   15.04
   1  -1   1  237.33   31.07
   1  -1   1  232.74   29.91
   1  -1   1  221.68   33.80
  -1   1  -1  224.94   31.17
  -1   1  -1  221.02   25.46
   3  -1   1   80.10   13.16
   3   1   1   55.93   12.22
   5  -1   1    2.81    9.24
   5   1   1   -6.18    8.80
   7  -1   1  -23.27   17.32
   7   1   1   -3.50   15.88
   6  -2  -1   77.49   19.27
   4   2  -1   99.94   18.12
   2  -2  -1  712.71   92.75
   2  -2  -1  719.40  104.31
  -2   2   1  709.78   96.35
   0  -2   1  408.06   56.28
   0  -2   1  411.70   60.67
   0  -2  -1  402.04   56.30
   0  -2  -1  426.66   60.85
   0   2   1  410.01   56.20
   0   2  -1  411.62   56.21
   0   2  -1  419.86   54.08
   0   2   1  417.70   54.13
   0   2  -1  417.69   45.93
   0   2   1  421.26   45.94
   2  -2   1   29.86    6.88
   2  -2   1   38.17    8.68
  -2   2  -1   45.60    7.00
  -2   2  -1   40.99    7.73
   4  -2   1    8.46    8.34
   4   2   1   -2.45    8.26
   6  -2   1   37.49   15.21
   6   2   1    6.63   13.00
   7  -3  -1  -34.69   22.73
   5  -3  -1   37.19   15.19
   3  -3  -1   -3.93   10.47
   3  -3  -1   10.19    6.82
  -3   3   1    6.63    6.65
   1  -3  -1   31.10    8.44
  -1  -3   1   21.92    7.54
   1  -3  -1   29.76    7.18
   1  -3  -1   31.34    7.70
  -1  -3   1   30.19    7.39
  -1   3   1   32.33    7.17
  -1   3   1   34.53    5.77
   1   3  -1   27.99    6.78
  -1   3   1   23.63    6.50
   1  -3   1   75.34   11.90
   1  -3   1   55.60   13.15
  -1  -3  -1   58.39   11.56
   1  -3   1   65.14   11.42
  -1   3  -1   64.73   11.43
   1   3   1   75.65   10.98
  -1   3  -1   70.59    9.51
  -1   3  -1   59.48   11.12
   1   3   1   56.64   11.54
   3  -3   1   27.50    8.03
   3  -3   1   45.84   12.12
  -3   3  -1   32.80    7.36
  -3   3  -1   37.37    9.47
   5  -3   1   -2.33    9.93
   5  -3   1    3.51   12.06
   7  -3   1    9.01   22.06
   6  -4  -1   47.45   21.67
   6  -4  -1   15.19   11.66
   4  -4  -1  162.87   25.84
   4  -4  -1  169.61   33.55
   2  -4  -1  247.10   40.50
   2  -4  -1  253.57   35.61
   2  -4  -1  262.60   35.09
  -2  -4   1  231.24   40.01
  -2   4   1  264.37   29.72
   2   4  -1  247.54   34.69
  -2   4   1  267.85   36.17
   0  -4   1  162.88   27.35
   0  -4  -1  196.55   25.63
   0  -4   1  159.96   25.58
   0  -4  -1  183.85   28.40
   0   4  -1  143.83   24.32
   0   4  -1  161.56   25.17
   0   4   1  182.62   24.97
   0   4   1  175.04   24.17
   2  -4   1   40.90   12.48
   2  -4   1   19.26    8.90
   2  -4   1   19.22    8.69
  -2   4  -1   47.78    8.36
  -2   4  -1   21.83    9.93
   2   4   1   69.08    9.67
   4  -4   1    7.03   10.71
   4  -4   1    1.45   13.48
  -4   4  -1   13.31    9.08
   6  -4   1  -17.36   19.12
   6  -4   1    7.29   11.29
   4  -6  -1   28.73   21.35
   2  -6  -1   41.14   14.53
  -2   6   1   79.48   15.89
   2   6  -1   53.30   16.35
   0  -6  -1   66.49   18.37
   0  -6   1   67.85   18.10
   0   6  -1   35.51   14.55
   0   6   1   72.00   14.89
   2  -6   1   -4.44   12.06
  -2   6  -1   18.97   12.56
   2   6   1   40.06   14.31
   3  -7  -1    3.54   12.00
   3   7  -1  -11.30   13.77
  -3   7   1   25.38   18.04
   1  -7  -1    0.73   13.44
  -1   7   1  -24.62   13.08
   1  -7   1   18.10   13.97
  -1  -7  -1   10.60   18.83
  -1   7  -1   -0.87   12.85
   3  -7   1    1.94   14.12
  -3   7  -1   17.42   16.63
   7  -1  -2   30.09   16.62
   5  -1  -2   -4.60    7.78
   5   1  -2   11.79    7.84
   3  -1  -2   46.07    8.69
   3   1  -2   27.23    6.94
   1  -1  -2  176.19   23.45
   1  -1  -2  171.74   26.70
  -1   1   2  179.98   24.26
  -1  -1  -2   52.09    7.85
   1  -1   2   52.95    7.84
   1  -1   2   51.06    7.64
   1  -1   2   34.67    9.30
   1   1   2   30.36    7.70
  -1   1  -2   40.70    8.58
   1   1   2   62.33    9.89
  -1   1  -2   52.55    6.91
   3  -1   2   11.45    6.61
   3   1   2   26.38    7.91
   5  -1   2   41.54   11.49
   5   1   2   10.56   10.34
   7  -1   2   29.25   19.75
   7   1   2   47.67   19.04
   6  -2  -2  105.16   22.28
   4   2  -2  112.52   19.19
   2  -2  -2  128.62   20.61
   2  -2  -2  122.63   17.20
  -2   2   2  117.09   17.38
   0  -2  -2   13.85    5.34
   0  -2  -2    9.37    6.89
   0  -2   2    7.82    4.65
   0  -2   2    8.56    5.08
   0  -2  -2   13.68    4.48
   0   2   2    9.43    4.62
   0   2  -2    6.51    5.01
   0   2  -2   10.87    4.46
   0   2   2    1.65    3.95
   0   2   2    6.56    4.81
   0   2  -2    8.22    3.97
   2  -2   2  140.23   23.87
  -2  -2  -2  143.61   20.96
   2  -2   2  163.17   21.12
   2  -2   2  146.27   20.47
  -2   2  -2  147.32   17.67
   2   2   2  145.86   20.83
  -2   2  -2  155.82   21.63
   4  -2   2  129.97   21.58
   4  -2   2  119.13   17.28
   4   2   2   86.41   22.41
   6  -2   2   45.18   15.25
   6   2   2   -0.61   14.51
   7  -3  -2   18.43   23.23
   5  -3  -2  -16.63   14.82
   3  -3  -2   20.19    7.81
   3  -3  -2   22.57   10.93
  -3   3   2   25.91    7.51
  -1  -3   2   54.13   11.64
   1  -3  -2   68.01   10.64
   1  -3  -2   75.44   12.16
  -1  -3   2   48.87   10.70
   1  -3  -2   51.61   11.03
  -1   3   2   51.80    8.66
  -1   3   2   51.75   10.28
   1   3  -2   56.65   10.31
  -1   3   2   46.77   10.49
   1  -3   2   21.67    7.00
  -1  -3  -2   13.71    6.44
   1  -3   2   10.27    5.81
   1  -3   2   11.41    6.68
   1   3   2   21.05    6.02
   1   3   2   14.06    7.06
  -1   3  -2   19.37    5.40
  -1   3  -2    5.72    5.57
  -1   3  -2   15.77    6.32
   3  -3   2   -7.85    9.60
   3  -3   2    6.26    6.81
  -3   3  -2   12.68    9.09
  -3   3  -2   10.75    6.72
   5  -3   2   22.86   11.17
   5  -3   2   37.93   13.97
   7  -3   2   59.22   23.70
   6  -4  -2   44.02   14.08
   6  -4  -2   78.05   24.22
   4  -4  -2  146.70   28.28
   4  -4  -2  146.34   24.27
   2  -4  -2   65.46   13.55
   2  -4  -2   88.64   16.32
  -2  -4   2   76.09   16.86
   2  -4  -2   70.30   13.16
  -2   4   2   76.21   12.30
  -2   4   2   71.83   14.13
   2   4  -2   68.91   14.10
   0  -4   2    6.44    7.96
   0  -4  -2   18.13   10.99
   0  -4  -2    5.26    8.95
   0  -4   2    8.82    8.43
   0   4  -2   -1.63    7.82
   0   4   2    1.78    7.40
   0   4   2   22.47    7.25
   0   4  -2   -2.23    7.17
   2  -4   2   38.83   10.54
   2  -4   2   47.04   10.26
   2  -4   2   47.33   14.14
   2   4   2   55.31   10.73
  -2   4  -2   51.78    9.68
  -2   4  -2   55.77   11.66
   4  -4   2   58.41   15.77
   4  -4   2   63.45   13.85
  -4   4  -2   51.02   11.74
   6  -4   2   14.59   11.98
   6  -4   2   36.01   18.49
   4  -6  -2   62.30   23.05
   2  -6  -2   15.23   12.93
   2  -6  -2   60.92   18.15
  -2   6   2   11.30   13.96
   2   6  -2   19.79   14.59
   0  -6  -2   42.51   15.93
   0  -6   2   21.51   15.71
   0   6   2   34.92   14.49
   0   6  -2   -0.26   11.85
   2  -6   2   13.98   12.35
  -2   6  -2   25.86   12.11
   2   6   2   10.89   13.97
   4   6   2   11.95   11.80
   3  -7  -2    1.76   12.00
  -3   7   2   -3.66   18.08
   1  -7  -2   -1.71   14.35
  -1   7   2  -11.72   13.25
  -1  -7  -2   17.26   18.83
   1  -7   2    9.25   14.17
  -1   7  -2   28.99   13.63
  -3   7  -2    8.84   16.68
   3   7   2  -16.38   13.37
   7  -1  -3  -23.33   14.95
   5  -1  -3   -3.43    8.08
   3  -1  -3   59.79   13.36
   1  -1  -3    3.31    5.99
   1  -1  -3    4.08    4.06
   1  -1  -3    5.92    5.08
  -1   1   3    3.87    3.82
  -1   1   3   -2.85    3.75
   1  -1   3   73.67   14.80
  -1  -1  -3   91.09   13.38
  -1  -1  -3   89.43   11.36
   1  -1   3   95.18   12.87
   1  -1   3   86.81   11.04
   1  -1   3  101.26   13.28
   1   1   3   60.16   14.37
  -1   1  -3   92.04   14.26
   1   1   3   89.04   15.46
  -1   1  -3  108.65   11.34
   3  -1   3  155.07   20.83
   3  -1   3  177.71   24.95
  -3   1  -3  142.10   22.87
   3   1   3  131.76   26.08
   5  -1   3   89.20   15.50
   5   1   3   36.64   13.80
   7  -1   3  -14.48   18.70
   7   1   3   13.65   19.54
   6  -2  -3   60.13   17.54
   4  -2  -3   31.82   11.81
   2  -2  -3   80.83   13.15
   2  -2  -3   94.76   16.27
  -2   2   3   85.84   12.93
   0  -2  -3  395.56   44.08
   0  -2   3  386.06   53.88
   0  -2  -3  393.99   51.78
   0  -2  -3  384.24   53.95
   0   2  -3  394.29   51.81
   0   2   3  396.19   51.85
   0   2  -3  401.58   54.02
   0   2  -3  402.62   44.03
   0   2   3  395.70   44.09
   0   2   3  414.18   53.92
   2  -2   3  292.73   44.93
   2  -2   3  301.07   41.06
  -2  -2  -3  295.20   41.06
   2  -2   3  295.23   39.56
  -2   2  -3  299.35   33.91
  -2   2  -3  311.86   41.53
   2   2   3  310.08   40.16
   4  -2   3   90.46   18.63
   4  -2   3   94.10   13.91
   4   2   3   58.64   17.01
   6  -2   3   11.68   14.96
   6   2   3   -7.34   15.68
   7  -3  -3   16.04   22.68
   5  -3  -3   12.46   15.74
   3  -3  -3   26.49    8.45
   3  -3  -3   29.49   11.46
  -1  -3   3  -10.01    5.90
   1  -3  -3    1.02    6.70
   1  -3  -3    4.11    4.69
   1  -3  -3    5.75    8.64
   1  -3  -3    0.04    5.14
  -1   3   3    0.58    4.77
   1   3  -3    1.42    5.55
  -1   3   3    2.50    5.80
  -1   3   3    3.46    5.86
   1  -3   3   47.48    8.92
  -1  -3  -3   40.17    9.03
   1  -3   3   63.45   11.67
  -1  -3  -3   55.14    7.93
   1  -3   3   48.00    9.11
  -1   3  -3   28.46    7.93
  -1   3  -3   47.53    7.40
   1   3   3   30.54    9.77
  -1   3  -3   38.56    9.18
   1   3   3   46.76    8.49
   3  -3   3   97.43   15.67
   3  -3   3  105.24   19.51
  -3   3  -3   98.35   18.51
  -3   3  -3   88.47   14.18
   3   3   3   88.06   16.06
   5  -3   3   79.22   16.73
   5  -3   3   51.78   13.32
   7  -3   3  -10.53   10.85
   7  -3   3    8.24   21.74
   6  -4  -3   40.16   22.66
   6  -4  -3   14.57   12.53
   4  -4  -3   26.00   12.55
   4  -4  -3   -7.58   15.80
   2  -4  -3   35.79   10.04
   2  -4  -3   42.94   10.14
   2  -4  -3   44.92   13.24
  -2   4   3   42.81    8.70
  -2   4   3   44.48   10.43
   2   4  -3   23.84    9.91
   0  -4   3   88.98   19.20
   0  -4  -3  120.49   18.31
   0  -4   3  129.78   17.87
   0  -4  -3  116.68   14.45
   0  -4  -3  104.16   23.21
   0   4  -3  122.28   17.48
   0   4   3   85.30   16.86
   0   4   3   87.00   17.20
   0   4  -3   94.38   16.85
   2  -4   3  138.17   24.24
   2  -4   3  126.08   18.92
   2  -4   3  118.88   18.86
  -2  -4  -3  133.12   19.86
  -2   4  -3  112.24   20.17
   2   4   3  114.10   18.89
  -2   4  -3   99.76   16.46
   4  -4   3   35.90   15.78
   4  -4   3   64.76   13.76
  -4   4  -3   56.96   12.30
   6  -4   3  -11.64   16.95
   6  -4   3   11.72   11.96
   4  -6  -3    4.14   20.82
   2  -6  -3   10.65   12.02
   2  -6  -3    0.07   17.39
  -2   6   3   20.23   14.09
   2   6  -3   13.72   13.24
   0  -6   3   30.95   16.28
   0  -6  -3   51.16   19.82
   0  -6  -3   31.17   15.56
   0   6   3    9.57   15.10
   0   6  -3   28.55   12.94
   2  -6   3   27.12   12.86
  -2   6  -3   18.69   12.38
   2   6   3   62.73   13.91
  -4   6  -3   24.04   20.67
   4   6   3    6.56   11.88
   3  -7  -3    0.42   11.65
   1  -7  -3   11.52   14.87
  -1   7   3    7.35   13.78
  -1  -7  -3    7.68   17.77
   1  -7   3   -2.90   13.80
  -1   7  -3   16.84   13.27
   5  -1  -4   65.36   13.39
   3  -1  -4   14.07    7.18
   1  -1  -4  156.28   22.73
   1  -1  -4  161.59   21.08
  -1  -1   4  103.08   22.39
   1  -1  -4  165.38   23.68
  -1   1   4  158.62   17.93
  -1   1   4  153.71   21.36
   1   1  -4  155.68   20.74
  -1  -1  -4  351.94   46.18
   1  -1   4  351.33   44.42
   1  -1   4  353.52   37.72
   1  -1   4  340.77   46.07
  -1  -1  -4  352.23   37.84
   1  -1   4  332.11   49.95
   1   1   4  337.89   45.55
  -1   1  -4  343.76   37.92
  -1   1  -4  343.51   44.76
   1   1   4  305.09   46.68
   1   1   4  298.52   38.47
  -1   1  -4  329.03   46.64
   3  -1   4  165.50   21.82
   3  -1   4  172.89   26.29
  -3   1  -4  181.79   24.85
   3   1   4  120.41   23.32
   3   1   4  152.45   27.73
   5  -1   4   45.08   12.49
   5   1   4   30.79   13.10
   7  -1   4   -0.36   19.14
   7   1   4   12.32   19.94
   6  -2  -4    2.44   13.99
   4  -2  -4  102.69   21.57
   2  -2  -4  395.76   58.03
   2  -2  -4  388.57   51.41
  -2   2   4  390.90   53.22
   0  -2  -4  349.33   47.51
   0  -2   4  341.86   47.42
   0  -2  -4  347.99   45.59
   0  -2  -4  341.64   38.78
   0   2  -4  339.87   47.59
   0   2  -4  345.81   38.75
   0   2  -4  362.13   45.65
   0   2   4  345.30   47.56
   0   2   4  351.28   38.87
   0   2   4  348.57   45.74
   2  -2   4  116.13   17.29
   2  -2   4  128.09   20.07
   2  -2   4  112.84   16.60
  -2  -2  -4  117.50   17.63
  -2   2  -4  116.54   18.89
   2   2   4  114.10   18.93
  -2   2  -4  123.27   15.01
   4  -2   4    1.29    7.34
   4  -2   4   15.12   10.45
   4   2   4   19.23   12.43
   6  -2   4    1.60    9.00
   6  -2   4    3.79   15.53
   6   2   4    1.03   17.96
   7  -3  -4   -8.42   21.83
   5  -3  -4   15.19   15.88
   3  -3  -4    5.77    7.94
   3  -3  -4   10.27   10.07
   1  -3  -4   88.86   18.20
   1  -3  -4   82.06   11.11
  -1  -3   4   75.58   14.19
   1  -3  -4   87.52   13.30
   1  -3  -4   79.88   14.60
  -1   3   4   91.16   14.12
   1   3  -4   84.15   13.55
  -1   3   4   82.42   11.82
   1  -3   4  163.74   25.33
   1  -3   4  153.02   21.80
  -1  -3  -4  163.53   18.85
  -1  -3  -4  171.18   23.51
   1  -3   4  162.02   22.93
  -1   3  -4  166.72   19.00
   1   3   4  166.43   22.50
  -1   3  -4  158.65   23.19
  -1   3  -4  147.92   21.97
   1   3   4  121.58   23.75
   3  -3   4   84.86   16.25
   3  -3   4  116.36   21.47
   3  -3   4  107.46   16.60
   3   3   4   86.60   17.94
  -3   3  -4  124.76   20.31
  -3   3  -4  114.33   15.45
  -3   3  -4  108.94   19.78
   5  -3   4    1.50   13.61
   5  -3   4   27.16   10.42
   7  -3   4    1.46   11.27
   7  -3   4   44.55   22.52
   6  -4  -4    4.99   12.12
   6  -4  -4   -0.98   21.65
   4  -4  -4   48.44   14.80
   4  -4  -4   59.83   18.10
   2  -4  -4  134.38   21.87
   2  -4  -4  142.59   22.04
   2  -4  -4  129.17   27.13
  -2   4   4  151.94   22.78
   2   4  -4  131.50   21.79
  -2   4   4  154.98   18.61
   0  -4   4  165.81   24.89
   0  -4  -4  182.99   20.39
   0  -4   4  154.30   27.03
   0  -4  -4  197.80   32.16
   0  -4  -4  206.69   25.55
   0   4   4  119.83   23.51
   0   4  -4  167.62   23.93
   0   4  -4  159.87   24.33
   0   4   4  157.82   24.76
   2  -4   4   80.39   16.67
  -2  -4  -4   88.93   15.23
  -2  -4  -4   74.64   11.09
   2  -4   4   36.19   12.05
  -2   4  -4   70.80   14.34
   2   4   4   75.04   14.57
   4  -4   4    0.98   11.45
   4  -4   4    6.53   15.23
  -4   4  -4  -28.41   11.16
   4   4   4    2.84   10.56
   6  -4   4   23.03   17.49
   6  -4   4   -8.84   12.02
   4  -6  -4    1.37   21.13
   2  -6  -4   54.39   19.73
   2  -6  -4   42.89   13.55
  -2   6   4   39.44   16.20
   2   6  -4   44.68   14.71
   0  -6  -4   30.33   15.93
   0  -6  -4   78.87   22.63
   0  -6   4   72.19   17.90
   0   6   4   53.73   16.16
   0   6  -4   20.77   13.93
  -2  -6  -4   40.36   26.68
   2  -6   4   16.83   12.04
  -2   6  -4   22.72   11.73
   4   6   4   -1.69   12.38
  -4   6  -4   20.07   21.01
   1  -7  -4   -1.37   21.90
   1  -7  -4    8.54   15.07
  -1   7   4  -31.55   13.73
  -1  -7  -4   -4.33   17.66
   1  -7   4  -27.65   13.29
  -1   7  -4    6.94   13.69
   5  -1  -5    7.26    8.64
   3  -1  -5   86.62   16.57
   1  -1  -5  299.19   47.87
   1  -1  -5  361.09   51.04
   1  -1  -5  345.71   45.46
  -1  -1   5  345.17   47.73
   1   1  -5  340.06   45.25
  -1   1   5  347.96   46.92
  -1   1   5  356.82   38.64
   1  -1   5  182.91   20.66
  -1  -1  -5  188.76   25.04
   1  -1   5  189.10   27.77
  -1  -1  -5  169.94   25.51
   1  -1   5  173.99   25.19
   1  -1   5  179.86   24.40
  -1  -1  -5  182.14   20.80
  -1   1  -5  177.18   24.77
  -1   1  -5  171.14   21.02
   1   1   5  179.12   26.50
  -1   1  -5  167.74   26.57
   1   1   5  185.81   26.59
   1   1   5  172.44   21.94
   3  -1   5   24.46    9.90
   3  -1   5   31.94    7.38
   3   1   5   33.53   11.82
   3   1   5   48.87   10.73
  -3   1  -5   47.41   12.57
   5  -1   5   -3.20   10.87
   5  -1   5   -6.10    8.14
   5   1   5   -4.39   11.95
   7  -1   5   16.75   18.74
   7   1   5   26.48   21.61
   6  -2  -5   89.66   20.24
   4  -2  -5  222.90   36.55
   2  -2  -5  270.76   40.63
   2  -2  -5  265.17   36.10
  -2   2   5  270.24   37.04
   0  -2  -5   61.86    8.68
   0  -2  -5   57.30   10.64
   0  -2   5   50.86   10.99
   0  -2   5   63.33    8.93
   0  -2  -5   64.36   10.74
   0   2   5   56.44   11.27
   0   2   5   54.77   11.67
   0   2  -5   53.25    8.57
   0   2   5   47.97    9.22
   0   2  -5   64.06   10.44
   0   2  -5   53.46   11.34
   2  -2   5   -8.01    7.32
  -2  -2  -5    2.63    6.60
  -2  -2  -5   -4.60    5.30
   2  -2   5    6.70    4.84
   2  -2   5    1.77    5.32
  -2   2  -5   10.71    6.39
  -2   2  -5    6.88    9.33
   2   2   5    9.70    9.89
   4  -2   5   27.45   12.24
   4  -2   5   10.97    8.17
   4   2   5   20.46   11.35
   4   2   5    8.56   13.23
   6  -2   5   -8.08    9.14
   6  -2   5    7.57   13.92
   6   2   5   -7.38   18.72
   7  -3  -5   37.44   23.34
   5  -3  -5  -13.74   14.00
   3  -3  -5   72.82   13.99
   3  -3  -5   56.66   14.34
   1  -3  -5  160.68   21.25
   1  -3  -5  165.40   22.56
  -1  -3   5  134.31   22.24
   1  -3  -5  141.88   27.27
  -1   3   5  149.65   22.18
  -1   3   5  141.07   18.50
   1   3  -5  143.37   21.27
   1  -3   5  115.00   16.45
  -1  -3  -5  112.14   17.60
   1  -3   5  105.33   18.61
  -1  -3  -5  106.89   13.86
  -1   3  -5  113.44   17.38
   1   3   5  111.93   17.32
  -1   3  -5   87.05   14.02
  -1   3  -5   93.13   15.97
   1   3   5   81.07   17.99
   3  -3   5   12.37    7.25
   3  -3   5   12.76   12.35
   3  -3   5    7.27    7.92
   3   3   5   16.57   11.48
  -3   3  -5   17.24   14.19
  -3   3  -5   18.22    9.64
   5  -3   5    6.78   14.62
   5  -3   5    2.25    9.97
   6  -4  -5   36.58   21.45
   4  -4  -5  103.55   20.60
   4  -4  -5   86.17   18.17
   2  -4  -5  126.28   25.66
   2  -4  -5  126.61   20.16
   2  -4  -5  133.05   20.17
  -2   4   5  117.87   17.54
   2   4  -5   95.06   20.00
  -2   4   5  127.85   20.92
   0  -4  -5   79.95   14.62
   0  -4  -5   91.30   20.05
   0  -4   5   57.75   11.77
   0   4  -5   29.42   10.49
   0   4  -5   23.55   10.03
   0   4   5   53.07   11.75
   2  -4   5    1.14   13.73
   2  -4   5    6.19    7.90
  -2  -4  -5   -4.31   10.99
  -2   4  -5   21.56   10.82
   2   4   5   -4.87   10.57
   4  -4   5    9.12   17.22
   4  -4   5   -1.66   11.38
  -4   4  -5   12.95   12.55
   4   4   5  -16.19   11.36
   6  -4   5   14.98   18.42
   6  -4   5   -5.72   11.87
   4  -6  -5   61.61   24.42
   2  -6  -5   27.12   12.27
   2  -6  -5   24.64   19.50
  -2   6   5   26.69   15.83
   2   6  -5   16.03   13.70
   0  -6  -5   30.34   24.18
   0  -6   5   46.89   17.82
   0  -6  -5   47.11   16.06
   0   6   5   62.06   16.09
   0   6  -5   24.33   14.51
   2  -6   5    9.39   12.15
  -2  -6  -5   -5.50   26.96
  -2   6  -5  -15.57   10.78
  -4   6  -5   33.16   21.98
   4   6   5   -1.92   12.80
   1  -7  -5  -32.51   14.44
   1  -7  -5    6.85   24.31
  -1   7   5    9.21   14.43
   1  -7   5   22.76   14.56
  -1  -7  -5   -3.18   18.21
  -1  -7  -5   16.02   30.24
  -1   7  -5    9.20   14.21
   3  -1  -6  154.72   25.09
   1  -1  -6   88.88   12.84
   1  -1  -6   82.82   13.90
  -1  -1   6   61.68   10.50
  -1  -1   6   70.72   13.51
   1  -1  -6   56.75   11.19
  -1   1   6   47.38   11.94
  -1   1   6   63.79    9.81
   1   1  -6   54.97   11.77
  -1  -1  -6    3.92    7.08
   1  -1   6   -0.37    6.90
  -1  -1  -6    0.80    5.13
   1  -1   6   -4.38    5.79
   1  -1   6   12.35    6.65
  -1  -1  -6   -2.81    7.37
   1  -1   6   -7.27    5.24
   1   1   6   -1.83    9.64
  -1   1  -6   21.22   10.03
   1   1   6    1.87    8.03
  -1   1  -6    5.46    6.31
   1   1   6   18.58    9.92
  -1   1  -6   -2.06    6.11
   3  -1   6   57.90    9.99
   3  -1   6   45.55   12.25
  -3  -1  -6   47.50   11.38
  -3   1  -6   79.36   16.15
  -3   1  -6   47.58   10.39
   3   1   6   38.96   13.16
   3   1   6   40.72   14.17
   5  -1   6    6.50   11.59
   5  -1   6   16.84    9.33
   5   1   6   20.40   13.53
   5   1   6   41.85   11.98
   7  -1   6   16.63   19.40
   7   1   6   -2.72   22.91
   4  -2  -6  142.02   25.99
   2  -2  -6   13.62    7.54
   2  -2  -6   15.67    7.78
   2   2  -6   13.81    6.29
  -2   2   6   20.81    7.09
  -2   2   6   20.18    7.00
   0  -2  -6   21.81    5.25
   0  -2  -6   26.76    7.22
   0  -2   6   10.66    5.74
   0  -2   6   22.42    7.72
   0  -2  -6   25.66    8.26
   0   2  -6    4.60    6.29
   0   2   6    8.40    8.19
   0   2   6   12.43    6.34
   0   2  -6   24.81    7.54
   0   2   6    6.09    8.37
  -2  -2  -6   44.15    8.13
   2  -2   6   41.49    8.36
   2  -2   6   43.25   10.91
  -2  -2  -6   44.42   10.40
   2  -2   6   48.57    9.49
  -2   2  -6   34.92   13.68
   2   2   6   52.69   13.63
   2   2   6   34.73   12.29
  -2   2  -6   59.60    9.39
   4  -2   6   23.15    8.88
   4  -2   6   15.22   13.81
   4   2   6    0.75   14.35
   4   2   6   32.25   12.16
   6  -2   6    6.68   13.99
   6  -2   6   22.75   10.29
   6   2   6    5.18   20.37
   5  -3  -6   23.64   14.35
   3  -3  -6   66.62   15.49
   3  -3  -6   87.84   16.18
  -3   3   6   82.43   12.89
   1  -3  -6   53.45   11.48
  -1  -3   6   47.89   10.89
   1  -3  -6   34.46    9.86
   1  -3  -6   61.75   15.48
   1   3  -6   42.01    9.87
  -1   3   6   73.50   10.54
  -1   3   6   49.05   11.30
   1  -3   6    3.11    7.93
  -1  -3  -6    3.50    6.76
  -1  -3  -6    2.64    9.74
   1  -3   6    9.93    7.67
  -1   3  -6   14.67    8.77
   1   3   6    0.62   10.60
   1   3   6   10.19    9.83
   3  -3   6   34.17    9.62
   3  -3   6   24.03   14.94
   3  -3   6   37.59    9.14
   3   3   6   44.09   14.03
  -3   3  -6   46.63   11.63
  -3   3  -6   39.55   17.56
   5  -3   6    5.83   10.50
   5  -3   6   32.39   17.85
   5   3   6   34.82   13.30
   6  -4  -6   32.01   20.53
   4  -4  -6   34.18   13.79
   4  -4  -6   37.83   14.54
   2  -4  -6   16.50   10.50
   2  -4  -6   20.64   11.17
   2  -4  -6   33.92   15.12
  -2   4   6   14.77   11.46
   2   4  -6   15.74   11.22
  -2   4   6   21.87    9.57
   0  -4  -6    6.94   19.22
   0  -4   6   -4.57   10.16
   0  -4  -6   -8.51   11.80
   0   4   6   19.31   10.93
   0   4  -6    7.44    8.16
   0   4  -6   -7.31    8.75
   2  -4   6   23.21    9.20
   2  -4   6   21.78   14.82
  -2  -4  -6   17.84   12.78
  -2   4  -6   23.05   12.04
   2   4   6   13.88   12.63
   4   4   6   -8.17   12.65
   4  -6  -6  -10.40   19.14
   2  -6  -6   32.98   21.21
   2  -6  -6   32.62   13.53
  -2   6   6   12.22   16.27
   0  -6  -6   -7.62   23.82
   0  -6   6    7.33   17.44
   0  -6  -6   -5.44   14.58
   0   6   6   17.64   15.12
   0   6  -6   -5.78   13.70
  -2  -6  -6  -28.70   29.45
   2  -6   6   11.36   12.48
  -2   6  -6   16.53   11.47
   1  -7  -6   53.54   28.07
  -1  -7  -6   16.27   30.40
   3  -1  -7   39.17    9.30
  -1  -1   7   12.28    7.33
   1  -1  -7   27.97    8.18
   1  -1  -7   22.83   11.21
  -1  -1   7   35.42   11.55
   1  -1  -7   28.46    9.14
   1   1  -7   15.59    7.43
  -1   1   7   21.82    7.65
  -1   1   7   15.80    8.29
   1  -1   7  136.02   21.91
  -1  -1  -7  120.38   17.43
   1  -1   7  136.19   17.80
   1  -1   7  107.42   20.50
  -1  -1  -7  144.01   22.40
   1  -1   7  101.98   23.71
  -1   1  -7  150.67   18.37
   1   1   7  143.73   19.12
  -1   1  -7  153.41   21.04
  -1   1  -7  218.94   25.33
   1   1   7  174.56   23.83
   1   1   7  189.19   23.60
  -3  -1  -7   99.27   20.18
   3  -1   7  130.28   23.20
   3  -1   7  107.24   18.19
  -3  -1  -7   74.68   15.90
  -3   1  -7   95.97   17.48
   3   1   7  125.91   26.73
   3   1   7  157.76   22.43
  -3   1  -7  207.79   26.05
   5  -1   7   51.51   11.82
   5  -1   7   54.38   14.75
   5   1   7   50.44   13.83
   5   1   7   26.51   15.68
   4  -2  -7    6.21    9.88
   2  -2  -7   31.98   10.25
   2  -2  -7   31.19    9.35
  -2   2   7   39.26    9.71
  -2   2   7   30.35    8.77
   2   2  -7   40.45    8.69
   0  -2   7   79.66   15.29
   0  -2   7   68.10   11.28
   0  -2  -7   76.39   13.86
   0  -2  -7   57.23   10.97
   0  -2  -7   73.27   14.75
   0   2  -7   67.19   13.05
   0   2   7   65.53   13.76
   0   2   7   82.80   11.90
   0   2  -7   76.49   13.45
  -2  -2  -7   12.70    7.27
  -2  -2  -7   21.64   10.18
   2  -2   7   21.28    7.08
   2  -2   7   19.27   10.19
   2  -2   7   13.01    7.15
   2   2   7   20.83   12.07
  -2   2  -7    8.66    9.04
   2   2   7    0.34   13.91
  -2   2  -7   30.61   15.62
   4  -2   7   -2.65   13.81
   4  -2   7    2.95    9.07
  -4   2  -7  -13.58   11.98
   4   2   7   16.02   12.73
   6  -2   7   -1.71   10.69
   6  -2   7   -3.86   14.88
   6   2   7    2.97   12.91
   6   2   7    2.35   21.38
   5  -3  -7   26.28   13.91
   3  -3  -7   -7.28    9.89
   3  -3  -7   23.17   11.83
  -3   3   7   38.73    9.35
   1  -3  -7    3.18   13.76
   1  -3  -7   22.20    9.09
  -1  -3   7   19.12   10.32
   1  -3  -7   17.17   10.46
  -1   3   7   16.78    8.26
   1   3  -7    2.64    8.48
  -1   3   7   11.59   10.66
   1  -3   7   90.11   15.32
  -1  -3  -7   87.29   12.89
  -1  -3  -7   93.41   16.76
   1   3   7   70.14   17.26
   1   3   7   43.58   15.02
  -1   3  -7   73.62   14.74
   3  -3   7   73.83   18.05
   3  -3   7   73.02   13.12
   3   3   7   38.92   16.41
  -3   3  -7   55.84   22.00
   5  -3   7   14.24   18.72
   5  -3   7   19.88   11.19
  -5   3  -7   18.77   15.70
   5   3   7    0.99   13.48
   6  -4  -7  -14.08   13.27
   6  -4  -7   21.69   19.09
   4  -4  -7   11.62   13.05
   4  -4  -7   -0.41   12.18
   4   4  -7    9.63   11.30
   2  -4  -7    7.06   15.88
   2  -4  -7   -1.52   11.23
   2  -4  -7   23.24   11.81
  -2   4   7   30.09   10.12
  -2   4   7   -6.30   13.49
   2   4  -7   14.36   11.74
   0  -4   7   12.37   12.39
   0  -4  -7   26.71   20.08
   0  -4  -7   27.25   13.42
   0   4  -7   26.31    9.66
   0   4  -7   11.41   10.57
   0   4   7   35.25   12.56
   2  -4   7    5.30    9.75
  -2  -4  -7   32.75   14.20
  -2   4  -7   31.05   13.43
   2   4   7    4.56   14.50
   4   4   7  -24.91   13.71
  -4   4  -7    4.35   20.85
   2  -6  -7  -20.19   13.09
   2  -6  -7    8.05   23.71
  -2   6   7   -0.69   14.18
   0  -6   7   -9.05   17.93
   0  -6  -7   27.69   15.29
   0  -6  -7   18.74   24.82
   0   6  -7   14.09   14.79
   0   6   7   18.90   15.52
  -2  -6  -7  -20.25   30.05
   2  -6   7    7.39   13.63
  -2   6  -7   -4.42   11.43
   3  -1  -8   32.42   10.12
   1  -1  -8  119.94   26.03
  -1  -1   8  153.60   19.62
   1  -1  -8  151.20   22.98
   1   1  -8  155.00   22.43
  -1   1   8  155.60   23.76
  -1   1   8  158.28   19.77
  -1  -1  -8  135.71   18.61
  -1  -1  -8  139.12   24.18
   1  -1   8  125.53   19.60
   1  -1   8  144.59   25.23
   1  -1   8  133.00   24.17
   1   1   8  222.31   24.95
  -3  -1  -8   56.70   12.89
  -3  -1  -8   91.62   17.50
   3  -1   8   77.00   15.25
   3  -1   8   76.74   15.94
   3  -1   8   66.93   18.27
   3   1   8  105.96   20.40
  -3   1  -8  174.54   23.80
  -3   1  -8   87.53   14.82
   3   1   8   64.64   19.77
   5  -1   8   -0.74   13.55
   5  -1   8   16.94   10.68
   5   1   8   18.90   12.92
   5   1   8    1.00   14.22
   2  -2  -8   57.34   13.87
   2  -2  -8   49.25   14.46
  -2   2   8  101.23   16.35
   2   2  -8   79.28   14.51
  -2   2   8  102.47   13.65
   0  -2   8   -0.68    7.45
   0  -2   8   18.01   12.31
   0  -2  -8   21.96   10.95
   0   2  -8   10.22    8.35
   0   2   8   -2.40   10.75
   0   2   8   12.65    8.20
   0   2  -8    6.25    9.63
   2  -2   8    3.42   11.49
   2  -2   8    4.29    7.76
  -2  -2  -8    4.84    8.08
  -2  -2  -8    3.19   11.91
   2   2   8   25.18   16.15
   2   2   8   -1.16   12.94
  -2   2  -8   23.01   19.09
   4  -2   8   -2.57    9.94
   4  -2   8    7.32   15.64
  -4  -2  -8   14.81    9.67
  -4   2  -8    1.13   13.08
   4   2   8   13.24   13.84
   6  -2   8   12.18   11.47
   6  -2   8   11.51   17.24
   6   2   8    8.85   13.53
   5  -3  -8   -1.87   12.77
   3  -3  -8   23.84   10.94
   3  -3  -8   23.74   13.55
  -3   3   8   16.20   10.14
   1  -3  -8  105.40   20.14
   1  -3  -8  147.64   20.33
  -1  -3   8  109.08   22.95
  -1  -3   8  106.59   15.47
   1  -3  -8   91.45   22.18
  -1   3   8   89.49   16.74
  -1   3   8  101.68   20.82
   1   3  -8  119.45   18.92
   1  -3   8  122.17   20.64
  -1  -3  -8  155.09   21.73
   1   3   8   77.12   19.76
  -1   3  -8  113.85   21.25
   3  -3   8   31.42   16.26
   3  -3   8   32.41   10.06
  -3   3  -8   19.11   22.37
   3   3   8   26.54   15.65
   5   3   8   14.88   14.49
   4  -4  -8   10.79   12.73
   4  -4  -8   10.20   13.34
   2  -4  -8    4.51   17.26
   2  -4  -8   34.15   12.24
   2   4  -8   16.10   12.88
  -2   4   8   62.70   15.49
   0  -4  -8  -11.70   18.90
   0  -4  -8   19.41   14.01
   0  -4   8  -22.27   13.74
   0   4   8    0.17   12.66
   0   4  -8   17.34   10.04
  -2  -4  -8   -9.23   14.79
   2  -4   8    3.50   10.98
   2   4   8   30.59   14.15
  -2   4  -8  -10.35   14.32
   4   4   8  -30.12   14.75
  -4   4  -8    2.44   22.95
   2  -6  -8   28.17   25.27
   2  -6  -8   11.20   14.34
  -2   6   8    4.18   15.10
   0  -6   8   18.45   19.05
   0  -6  -8   -8.85   15.94
   0  -6  -8   27.78   24.94
   0   6   8   14.82   16.18
  -2  -6  -8    3.01   29.29
  -2  -6  -8   12.29   17.99
   3  -1  -9   83.30   16.75
  -1  -1   9  160.50   21.75
   1  -1  -9  192.79   25.50
  -1  -1   9  250.94   29.91
   1  -1  -9  137.28   28.64
  -1   1   9  127.92   26.42
  -1   1   9  143.76   21.74
   1   1  -9  170.07   25.05
  -1  -1  -9   39.06   14.87
   1  -1   9   25.68   15.70
   1  -1   9   22.75   13.66
   1   1   9   72.27   16.32
  -1   1  -9  111.67   19.22
  -3  -1  -9   17.02   15.09
  -3  -1  -9   12.75   10.17
   3  -1   9   -3.20    9.83
   3  -1   9   -9.41   15.04
  -3   1  -9    7.54   21.44
   3   1   9    9.38   15.04
   5  -1   9   -7.58   15.96
   5  -1   9   12.37   11.14
   5   1   9  -16.43   14.96
   5   1   9   -6.67   13.16
  -5   1  -9   -6.53   14.58
   4  -2  -9   40.59   14.24
   2  -2  -9   28.30   12.22
   2  -2  -9    6.78    9.91
   2   2  -9   14.62   10.37
  -2   2   9   15.92   10.11
   0  -2   9  -43.14   14.95
   0  -2  -9   -3.82   12.61
   0  -2   9  -11.47    8.38
   0   2  -9   -1.18    9.92
   0   2  -9   -8.66   10.98
   0   2   9    3.66   12.31
   2  -2   9   15.49   10.01
  -2  -2  -9    4.47   13.87
   2   2   9    5.94   14.34
  -2   2  -9  -16.40   21.89
  -4  -2  -9    9.18   10.82
   4  -2   9    6.06   16.96
   4   2   9   -5.82   14.36
   5  -3  -9   14.40   14.37
   3  -3  -9   93.57   19.76
   3  -3  -9   55.32   16.73
   3   3  -9   53.18   14.47
  -3   3   9   96.04   15.40
  -1  -3   9   70.08   12.30
   1  -3  -9   50.79   18.74
   1  -3  -9   65.63   17.47
  -1   3   9   93.88   19.05
   1   3  -9  116.04   17.20
  -1  -3  -9   10.13   14.33
   1  -3   9   31.41   14.37
   1   3   9   42.10   14.17
  -1   3  -9   41.65   13.89
   3  -3   9   -1.41   10.27
  -3   3  -9   11.46   24.10
   3   3   9   26.53   17.02
   5   3   9   -3.91   15.04
   4  -4  -9  -17.07   13.80
   4  -4  -9   25.24   13.55
   2  -4  -9   -3.04   16.75
   2   4  -9   -3.70   12.02
  -2   4   9    9.07   16.20
   0  -4   9   -5.88   16.23
   0  -4  -9   17.96   14.72
   0  -4  -9  -37.25   17.04
   0   4  -9   -1.79   11.47
   0   4   9    3.23   13.19
  -2  -4  -9   -0.21   15.29
   2  -4   9    8.61   12.46
  -2   4  -9    6.51   15.99
   2   4   9  -17.48   14.54
  -4   4  -9  -38.30   25.24
   4   4   9    6.56   16.81
   2  -6  -9    0.49   14.29
   2  -6  -9   -2.68   25.29
  -2   6   9   16.53   16.62
   0  -6   9   -3.59   20.34
   0  -6  -9   -5.49   16.93
   0  -6  -9   -2.54   23.57
   0   6   9   23.10   14.88
   3  -1 -10  103.01   19.09
   3   1 -10   99.79   18.93
   1  -1 -10   14.76   12.61
  -1  -1  10   19.53   10.44
  -1  -1  10   31.34   17.82
   1  -1 -10   20.61   16.27
  -1   1  10   12.39   11.09
  -1   1  10   20.38   14.05
   1   1 -10   34.36   12.56
   1  -1  10   -1.26   16.99
  -1  -1 -10   -2.16   14.24
  -1   1 -10   16.87   20.00
   1   1  10  -18.01   15.23
   3  -1  10   15.03   12.35
  -3  -1 -10   15.96   16.94
   3  -1  10   34.42   17.49
  -3   1 -10   11.20   22.28
   5  -1  10   -3.09   18.96
   5   1  10   11.19   14.70
   5   1  10  -12.96   16.49
   4  -2 -10   -6.31   12.69
   2  -2 -10  -11.39   13.11
   2   2 -10   -3.92   11.40
  -2   2  10   -4.31   10.75
   0  -2 -10    3.84   14.22
   0  -2  10  -17.69   19.38
   0  -2  10  -26.31   10.13
   0   2  10    3.09   13.58
   0   2 -10   -4.35   13.01
   2  -2  10  -11.49   12.22
  -2  -2 -10   28.69   14.91
   2   2  10    9.65   15.36
  -2   2 -10  -19.97   22.79
  -4  -2 -10    1.54   11.87
   4  -2  10   10.56   18.71
  -4   2 -10   10.92   27.81
   4   2  10   -8.65   16.14
   5  -3 -10   45.27   17.08
   3  -3 -10   19.05   14.72
   3   3 -10   26.01   11.38
   1  -3 -10   23.17   14.84
  -1  -3  10   13.12    9.05
   1  -3 -10    9.77   14.35
   1   3 -10   10.21   12.71
  -1   3  10   -0.70   14.75
   1  -3  10    0.34   16.13
  -1  -3 -10   -3.41   14.02
  -1   3 -10   12.85   14.76
   1   3  10    7.22   13.71
   3  -3  10  -10.62   11.83
  -3   3 -10   -2.66   24.51
   4  -4 -10    5.72   14.79
   2  -4 -10    8.35   17.69
  -2   4  10  -24.76   16.36
   2   4 -10   12.03   12.38
   0  -4 -10   15.93   15.32
   0  -4  10   16.47   18.95
   0  -4 -10   -8.57   14.91
   0   4 -10   -5.63   13.83
   0   4  10    0.85   13.77
   2  -4  10   14.33   13.82
  -2  -4 -10  -19.37   15.79
  -2   4 -10   -3.99   17.72
   2   4  10  -24.02   15.50
  -4   4 -10   15.86   29.33
   3  -1 -11    7.43   11.29
   3   1 -11  -11.44   11.01
  -1  -1  11   14.12   11.46
  -1  -1  11   29.29   20.14
   1  -1 -11   28.33   17.21
   1  -1 -11   36.81   14.44
  -1   1  11   12.90   12.20
   1   1 -11   28.82   14.32
  -1   1  11    9.55   16.08
  -1  -1 -11   20.98   15.97
   1  -1  11    8.53   20.27
  -1   1 -11   59.94   22.71
   1   1  11   52.20   18.03
  -3  -1 -11   24.63   16.90
   3  -1  11    5.64   19.60
   3  -1  11    7.80   14.69
   3   1  11    1.27   18.55
  -3   1 -11    7.88   21.19
   5  -1  11   -2.30   20.88
   4  -2 -11  -23.20   12.73
  -2  -2  11    2.46   10.15
   2  -2 -11   14.50   14.55
  -2   2  11    7.25   12.14
   2   2 -11   14.88   12.37
   0  -2 -11   13.01   14.97
   0  -2  11   -3.09   23.11
   0   2 -11    4.89   15.70
   0   2  11   23.03   14.99
  -2  -2 -11  -14.82   14.62
   2  -2  11   10.24   15.02
  -2   2 -11   27.93   24.55
   2   2  11  -11.19   16.43
  -4   2 -11   25.40   25.33
   5  -3 -11   33.15   17.79
   3  -3 -11  -12.86   13.19
   3   3 -11    4.21   11.23
  -1  -3  11  -10.58    9.79
   1  -3 -11   -4.25   14.03
   1  -3 -11   13.45   14.07
   1   3 -11  -22.09   13.94
  -1   3  11    5.43   15.45
  -1  -3 -11   -8.14   15.01
   1  -3  11  -13.16   18.01
  -1   3 -11   26.99   17.19
   1   3  11   38.79   14.55
   3  -3  11   29.37   15.74
  -3  -3 -11   45.57   18.77
  -3   3 -11   62.02   27.57
   4  -4 -11  -15.51   15.25
   4   4 -11   -1.34   12.45
   2  -4 -11  -13.87   18.35
  -2   4  11    4.92   18.33
   2   4 -11   -4.04   12.76
   0  -4 -11    3.23   13.39
   0  -4  11  -32.76   21.27
   0  -4 -11    1.01   15.16
   0   4  11  -10.67   12.45
   0   4 -11  -21.28   16.82
   2  -4  11   -5.94   16.18
  -2  -4 -11   24.58   17.74
  -2   4 -11   -6.34   19.92
   2   4  11  -13.20   16.26
   3  -1 -12   45.91   13.07
   3   1 -12   28.27   12.86
  -1  -1  12   43.72   13.62
   1   1 -12   71.21   17.45
  -1   1  12   12.36   18.69
  -1  -1 -12   24.14   16.18
   1  -1  12   28.21   21.15
  -1   1 -12    1.80   22.25
   1   1  12   30.18   17.11
  -3  -1 -12   10.30   16.74
   3  -1  12  -12.32   17.05
  -3   1 -12   59.13   21.39
   3   1  12  -10.15   20.52
   4  -2 -12   -0.84   13.39
   2  -2 -12   13.95   16.24
  -2  -2  12    9.31   10.78
   2   2 -12   -5.74   11.75
  -2   2  12  -23.58   12.99
   0  -2 -12    1.69   15.96
   0  -2  12  -33.70   25.13
   0   2 -12    9.71   17.89
   0   2  12   -3.66   14.95
  -2  -2 -12  -11.82   14.79
   2  -2  12  -24.05   16.88
   2   2  12   22.48   17.67
  -2   2 -12   32.14   24.96
  -4   2 -12  -12.06   25.67
   3  -3 -12   -2.56   14.49
   3   3 -12   13.76   12.28
   1  -3 -12   20.54   15.05
   1  -3 -12    6.95   14.71
  -1   3  12    6.67   15.28
  -1  -3 -12   20.39   16.09
   1  -3  12   -2.31   19.50
  -1   3 -12   38.94   19.85
   1   3  12    2.53   14.51
  -3  -3 -12   24.04   19.40
  -3   3 -12   -4.61   27.92
   2   4 -12    7.90   13.97
  -2   4  12  -13.65   18.82
   0  -4  12  -18.67   23.15
   0  -4 -12  -16.14   11.92
   0  -4 -12    7.41   16.56
   0   4  12   12.09   13.70
  -2  -4 -12  -21.97   19.44
   3  -1 -13   45.12   14.15
   3   1 -13   41.19   14.29
  -3   1  13   46.35   13.86
  -1   1  13   70.59   21.73
  -1  -1 -13   21.49   16.70
   1  -1  13   40.48   20.37
  -1   1 -13   -7.27   20.32
   1   1  13   15.33   15.73
  -3  -1 -13  -17.99   17.58
   3  -1  13  -31.49   20.91
  -3   1 -13    7.03   21.12
   3   1  13  -23.59   22.33
   4  -2 -13    1.05   13.61
   4   2 -13   -0.24   12.06
  -2  -2  13  -15.48   11.38
   2   2 -13  -13.94   12.64
   0  -2 -13   18.31   15.26
   0  -2  13    8.60   26.39
   0   2  13    0.39   13.93
   0   2 -13   19.92   21.37
  -2  -2 -13    3.53   16.24
   2  -2  13  -32.78   18.28
   2   2  13   -6.32   18.26
  -2   2 -13  -31.30   22.73
   3   3 -13   13.58   13.25
   1  -3 -13   26.64   15.12
  -1   3  13   -8.89   15.42
   1  -3  13   13.32   22.46
  -1  -3 -13    5.82   16.41
   1   3  13  -17.44   13.71
  -1   3 -13   10.67   21.94
   0  -4  13    0.02   25.70
   0  -4 -13    9.61   12.44
   3  -1 -14   20.77   13.60
   3   1 -14   -5.57   13.17
  -3   1  14   10.41   13.74
  -1   1  14   20.44   19.66
   1  -1  14   16.92   21.27
  -1  -1 -14   20.03   16.32
   1   1  14   19.55   16.62
  -1   1 -14    6.86   21.27
  -2  -2  14   18.13   13.01
   0  -2  14   -7.59   25.07
   0  -2 -14    0.29   16.41
   0   2  14   -6.35   15.11
   0   2 -14   16.49   24.14
  -1   3  14    8.23   16.90
  -1   1  15   11.20   19.16
;
_shelx_hkl_checksum              6973
_olex2_exptl_crystal_mounting_method 'Paratone oil on plastic head'
_olex2_submission_original_sample_id BiSe(1)
_olex2_submission_special_instructions 'No special instructions were received'
#END Tags that were not found in dictionaries
loop_
_space_group_symop_operation_xyz
'x, y, z'
'-x, y, -z'
'x+1/2, y+1/2, z'
'-x+1/2, y+1/2, -z'
'-x, -y, -z'
'x, -y, z'
'-x+1/2, -y+1/2, -z'
'x+1/2, -y+1/2, z'
loop_
_atom_site_label
_atom_site_type_symbol
_atom_site_fract_x
_atom_site_fract_y
_atom_site_fract_z
_atom_site_U_iso_or_equiv
_atom_site_adp_type
_atom_site_occupancy
_atom_site_site_symmetry_order
_atom_site_calc_flag
_atom_site_refinement_flags_posn
_atom_site_refinement_flags_adp
_atom_site_refinement_flags_occupancy
Bi01 Bi 0.3018(8) 0.5000 0.6482(4) 0.0528(19) Uani 1 2 d S T P
Se02 Se 0.2311(13) 0.5000 0.4029(7) 0.0217(19) Uani 1 2 d S T P
loop_
_atom_site_aniso_label
_atom_site_aniso_U_11
_atom_site_aniso_U_22
_atom_site_aniso_U_33
_atom_site_aniso_U_23
_atom_site_aniso_U_13
_atom_site_aniso_U_12
Bi01 0.045(3) 0.055(3) 0.059(3) 0.000 0.015(2) 0.000
Se02 0.023(5) 0.007(3) 0.037(5) 0.000 0.014(3) 0.000
loop_
_atom_type_symbol
_atom_type_description
_atom_type_scat_dispersion_real
_atom_type_scat_dispersion_imag
_atom_type_scat_source
Bi Bi -4.1077 10.2566 'International Tables Vol C Tables 4.2.6.8 and 6.1.1.4'
Se Se -0.0929 2.2259 'International Tables Vol C Tables 4.2.6.8 and 6.1.1.4'
loop_
_geom_angle_atom_site_label_1
_geom_angle_atom_site_label_2
_geom_angle_atom_site_label_3
_geom_angle
_geom_angle_site_symmetry_1
_geom_angle_site_symmetry_3
Se02 Bi01 Se02 82.6(3) . 5_666
Se02 Bi01 Se02 90.66(18) 5_666 7_556
Se02 Bi01 Se02 78.56(19) . 7_556
Se02 Bi01 Se02 90.66(18) 5_666 7_566
Se02 Bi01 Se02 78.56(19) . 7_566
Se02 Bi01 Se02 156.7(4) 7_556 7_566
Bi01 Se02 Bi01 97.4(3) . 5_666
Bi01 Se02 Bi01 156.7(4) 7_556 7_566
Bi01 Se02 Bi01 101.44(19) . 7_556
Bi01 Se02 Bi01 90.66(18) 5_666 7_566
Bi01 Se02 Bi01 90.66(18) 5_666 7_556
Bi01 Se02 Bi01 101.44(19) . 7_566
loop_
_geom_bond_atom_site_label_1
_geom_bond_atom_site_label_2
_geom_bond_distance
_geom_bond_site_symmetry_2
Bi01 Se02 2.814(8) .
Bi01 Se02 2.988(9) 5_666
Bi01 Se02 2.995(2) 7_556
Bi01 Se02 2.995(2) 7_566
Se02 Bi01 2.988(9) 5_666
Se02 Bi01 2.995(2) 7_556
Se02 Bi01 2.995(2) 7_566
