#------------------------------------------------------------------------------
#$Date: 2016-02-16 22:30:59 +0200 (Tue, 16 Feb 2016) $
#$Revision: 176467 $
#$URL: svn://www.crystallography.net/cod/cif/4/34/25/4342501.cif $
#------------------------------------------------------------------------------
#
# This file is available in the Crystallography Open Database (COD),
# http://www.crystallography.net/
#
# All data on this site have been placed in the public domain by the
# contributors.
#
data_4342501
loop_
_publ_author_name
'Clarke, Samantha M.'
'Freedman, Danna E.'
_publ_section_title
;
 (BiSe)1.23CrSe2 and (BiSe)1.22(Cr1.2Se2)2: Magnetic Anisotropy in the
 First Structurally Characterized Bi-Se-Cr Ternary Compounds.
;
_journal_issue                   6
_journal_name_full               'Inorganic chemistry'
_journal_page_first              2765
_journal_page_last               2771
_journal_paper_doi               10.1021/ic5029178
_journal_volume                  54
_journal_year                    2015
_chemical_formula_moiety         '0.5(Cr4.89 Se8)'
_chemical_formula_sum            'Cr2.3 Se4'
_chemical_formula_weight         435.31
_chemical_name_systematic        'Bismuth chromium selenide'
_space_group_crystal_system      monoclinic
_space_group_IT_number           12
_space_group_name_Hall           '-C 2y'
_space_group_name_H-M_alt        'C 1 2/m 1'
_symmetry_space_group_name_Hall  '-C 2y'
_symmetry_space_group_name_H-M   'C 1 2/m 1'
_atom_sites_solution_primary     direct
_audit_creation_date             2014-10-20
_audit_creation_method
;
Olex2 1.2
(compiled 2014.09.19 svn.r3010 for OlexSys, GUI svn.r4874)
;
_cell_angle_alpha                90
_cell_angle_beta                 93.535(6)
_cell_angle_gamma                90
_cell_formula_units_Z            2
_cell_length_a                   6.2049(4)
_cell_length_b                   3.5980(3)
_cell_length_c                   17.2352(12)
_cell_measurement_reflns_used    1406
_cell_measurement_temperature    250(2)
_cell_measurement_theta_max      67.29
_cell_measurement_theta_min      10.33
_cell_volume                     384.05(5)
_computing_molecular_graphics    'Olex2 (Dolomanov et al., 2009)'
_computing_publication_material  'Olex2 (Dolomanov et al., 2009)'
_computing_structure_refinement  'XL (Sheldrick, 2008)'
_computing_structure_solution    'ShelXT (Sheldrick, 2008)'
_diffrn_ambient_temperature      249.99
_diffrn_detector                 'Bruker APEX2 area detector'
_diffrn_detector_area_resol_mean 7.9
_diffrn_detector_type            'CCD area detector'
_diffrn_measured_fraction_theta_full 0.481
_diffrn_measured_fraction_theta_max 0.546
_diffrn_measurement_device       'three-circle diffractometer'
_diffrn_measurement_device_type  'Bruker APEX-II CCD'
_diffrn_measurement_method       '\w and \f scans'
_diffrn_radiation_monochromator  'mirror optics'
_diffrn_radiation_probe          x-ray
_diffrn_radiation_type           CuK\a
_diffrn_radiation_wavelength     1.54178
_diffrn_reflns_av_R_equivalents  0.0915
_diffrn_reflns_av_unetI/netI     0.0467
_diffrn_reflns_Laue_measured_fraction_full 0.481
_diffrn_reflns_Laue_measured_fraction_max 0.546
_diffrn_reflns_limit_h_max       7
_diffrn_reflns_limit_h_min       -6
_diffrn_reflns_limit_k_max       2
_diffrn_reflns_limit_k_min       -4
_diffrn_reflns_limit_l_max       19
_diffrn_reflns_limit_l_min       -19
_diffrn_reflns_number            1239
_diffrn_reflns_point_group_measured_fraction_full 0.481
_diffrn_reflns_point_group_measured_fraction_max 0.546
_diffrn_reflns_theta_full        67.679
_diffrn_reflns_theta_max         63.620
_diffrn_reflns_theta_min         14.347
_diffrn_source                   'microfocus sealed X-ray tube'
_diffrn_source_type              'Incoatec I\ms'
_diffrn_standards_number         0
_exptl_absorpt_coefficient_mu    47.358
_exptl_absorpt_correction_T_max  0.7529
_exptl_absorpt_correction_T_min  0.3608
_exptl_absorpt_correction_type   multi-scan
_exptl_absorpt_process_details
;
SADABS-2012/1 (Bruker,2012) was used for absorption correction.
wR2(int) was 0.1300 before and 0.0574 after correction.
The Ratio of minimum to maximum transmission is 0.4792.
The \l/2 correction factor is 0.0015.
;
_exptl_crystal_colour            metallic
_exptl_crystal_colour_lustre     metallic
_exptl_crystal_density_diffrn    3.764
_exptl_crystal_description       plate
_exptl_crystal_F_000             382
_exptl_crystal_size_max          0.05
_exptl_crystal_size_mid          0.05
_exptl_crystal_size_min          0.02
_refine_diff_density_max         5.801
_refine_diff_density_min         -4.694
_refine_diff_density_rms         0.760
_refine_ls_extinction_method     none
_refine_ls_goodness_of_fit_ref   1.187
_refine_ls_hydrogen_treatment    undef
_refine_ls_matrix_type           full
_refine_ls_number_parameters     24
_refine_ls_number_reflns         201
_refine_ls_number_restraints     15
_refine_ls_restrained_S_all      1.141
_refine_ls_R_factor_all          0.1352
_refine_ls_R_factor_gt           0.1318
_refine_ls_shift/su_max          0.000
_refine_ls_shift/su_mean         0.000
_refine_ls_structure_factor_coef Fsqd
_refine_ls_weighting_details
'w=1/[\s^2^(Fo^2^)+(0.1445P)^2^+200.7711P] where P=(Fo^2^+2Fc^2^)/3'
_refine_ls_weighting_scheme      calc
_refine_ls_wR_factor_gt          0.3160
_refine_ls_wR_factor_ref         0.3185
_reflns_Friedel_coverage         0.000
_reflns_number_gt                188
_reflns_number_total             201
_reflns_threshold_expression     'I > 2\s(I)'
_cod_data_source_file            ic5029178_si_002.cif
_cod_data_source_block           c2m
_cod_depositor_comments
'Adding full bibliography for 4342497--4342502.cif.'
_cod_original_formula_sum        'Cr2.30 Se4'
_cod_database_code               4342501
#BEGIN Tags that were not found in dictionaries:
_shelxl_version_number           2013-3
_shelx_space_group_comment
;
The symmetry employed for this shelxl refinement is uniquely defined
by the following loop, which should always be used as a source of
symmetry information in preference to the above space-group names.
They are only intended as comments.
;
_olex2_refinement_description
;
1. Rigid body (RIGU) restrains
 All non-hydrogen atoms
 with sigma for 1-2 distances of 0.004 and sigma for 1-3 distances of 0.004
;
_shelx_res_file
;
TITL c2m in C2/m #12
CELL 1.54178 6.2049 3.598 17.2352 90 93.535 90
ZERR 2 0.0004 0.0003 0.0012 0 0.0057 0
LATT 7
SYMM -X,+Y,-Z

SFAC Cr Se
UNIT 4.59512 8
RIGU

L.S. 20
PLAN  4
TEMP -23.16
CONN 6 $Cr
REM Solution 1 R1 0.242 Rweak 0.022, Alpha = 0.0880 in C2/m
BOND
LIST 6
MORE -1
fmap 2 53
ACTA
REM <HKL>C:/Users/Samantha/Documents/XRD/smc52_2/work/crse2_2/c2mb.hkl</HKL>

WGHT    0.144500  200.771118
FVAR       0.10119
CR1   1    0.529580    0.500000    0.669065    10.50000    0.00659    0.00489 =
         0.01448    0.00000   -0.00154    0.00000
CR2   1    1.000000    0.000000    0.500000     0.11156    0.00179    0.00776 =
         0.02164    0.00000   -0.00071    0.00000
SE1   2    0.848576    0.500000    0.584479    10.50000    0.00334    0.00406 =
         0.01433    0.00000   -0.00056    0.00000
SE2   2    0.709140    0.000000    0.750954    10.50000    0.00891    0.00730 =
         0.01282    0.00000   -0.00126    0.00000
HKLF 4

REM  c2m in C2/m #12
REM R1 =  0.1318 for     188 Fo > 4sig(Fo)  and  0.1352 for all     201 data
REM     24 parameters refined using     15 restraints

END

WGHT      0.1445    200.8458

REM Highest difference peak  5.801,  deepest hole -4.694,  1-sigma level  0.760
Q1    1   0.8926 -0.5000  0.8826  10.50000  0.05    5.80
Q2    1   1.0594  0.0000  0.8762  10.50000  0.05    5.22
Q3    1   0.8368  0.5000  0.5354  10.50000  0.05    3.94
Q4    1   0.9656 -0.2576  0.9136  11.00000  0.05    2.56
;
_shelx_res_checksum              67953
_shelx_hkl_file
;
   0  -1   0   -0.95    0.17
   1  -1   0    0.73    0.26
   1  -1   0    1.56    0.31
  -1  -1   0    0.75    0.21
  -1   1   0    0.63    0.36
   1   1   0    0.85    0.27
   2  -1   0   -0.02    0.27
   2  -1   0   -0.43    0.42
  -2  -1   0    0.09    0.21
  -2   1   0   -0.27    0.34
   2   1   0    0.20    0.33
  -3  -1   0  737.52   44.67
   3  -1   0  724.85   57.17
   3   1   0  769.85   46.11
  -3   1   0  754.99   46.17
   4  -1   0   -1.28    0.90
   4  -1   0   -0.47    0.76
   4  -1   0    0.18    0.43
   4  -1   0    0.00    0.31
  -4  -1   0    0.27    0.37
   4  -1   0    0.26    0.42
  -4  -1   0    0.03    0.46
   4   1   0    0.26    0.51
  -4   1   0    0.15    0.59
   4   1   0    0.31    0.67
  -4   1   0    0.30    0.85
   5  -1   0    8.01    1.68
   5  -1   0    9.26    1.49
   5  -1   0    8.94    1.04
   5  -1   0    8.94    1.02
   5  -1   0    8.81    1.43
  -5  -1   0    8.98    1.18
   5   1   0    7.96    1.49
  -5   1   0    8.70    1.57
  -5   1   0    8.57    1.59
   5   1   0    8.64    1.39
  -5   1   0   11.91    1.85
   6  -1   0    0.49    0.51
   6  -1   0    0.41    0.94
   6  -1   0   -0.10    0.80
   6  -1   0    0.28    0.48
  -6  -1   0    0.08    0.58
   6   1   0   -0.11    0.74
  -6   1   0    0.54    1.55
  -6   1   0   -2.96    1.26
   0  -2   0  724.65   44.28
   1  -2   0    0.22    0.33
  -1  -2   0   -0.13    0.24
   2  -2   0   21.20    1.87
   2  -2   0   22.09    1.60
  -2  -2   0   21.18    1.50
  -2  -2   0   20.11    1.36
  -2  -2   0   22.53    1.78
  -2  -2   0   20.51    1.92
   2  -2   0   25.39    1.96
  -2   2   0   29.17    2.37
   3  -2   0   -0.14    0.45
   3  -2   0    0.52    0.79
  -3  -2   0   -0.62    0.47
   3  -2   0   -0.64    0.81
  -3  -2   0   -0.09    0.40
  -3  -2   0   -0.10    0.35
   3  -2   0    0.50    0.89
   3  -2   0    0.04    0.56
   3   2   0   -0.09    0.66
  -3   2   0    0.26    0.80
   4  -2   0    1.03    0.92
  -4  -2   0    1.60    0.66
   4  -2   0    1.56    0.55
  -4  -2   0    1.32    0.70
  -4  -2   0    0.88    0.48
   4   2   0    2.79    0.95
  -4   2   0    3.63    1.37
  -4   2   0    2.27    1.06
   5  -2   0   -0.17    0.44
   5  -2   0    0.09    0.75
   5  -2   0   -0.20    0.57
   5   2   0   -0.26    0.92
  -5   2   0    0.50    1.22
   6  -2   0   45.14    3.18
  -6   2   0   51.73    3.93
  -6   2   0   59.33    4.19
   6   2   0   56.94    3.69
   0  -4   0  206.93   12.14
   1  -4   0    0.73    0.51
   1  -4   0    0.81    0.76
  -2  -4   0    5.91    0.90
   7  -1  -1    2.49    0.59
   7   1  -1    3.56    1.00
   6  -1  -1    0.27    0.68
   6  -1  -1   -0.18    0.48
   6  -1  -1    1.22    1.03
   6  -1  -1   -0.13    0.48
  -6  -1   1    0.51    0.60
   6   1  -1   -0.31    0.77
  -6   1   1   -0.92    1.27
  -6   1   1    0.67    1.40
   5  -1  -1    1.70    0.53
   5  -1  -1    2.09    0.94
   5  -1  -1    3.17    1.14
  -5  -1   1    2.64    0.73
   5  -1  -1    2.11    0.56
   5  -1  -1    4.61    1.19
   5   1  -1    2.16    0.82
  -5   1   1    2.52    1.29
   5   1  -1    1.86    0.96
  -5   1   1    1.90    0.83
   4  -1  -1   -0.20    0.68
   4  -1  -1    0.91    0.49
  -4  -1   1    0.43    0.53
  -4  -1   1   -0.07    0.34
   4  -1  -1   -0.89    0.88
   4  -1  -1    0.06    0.30
   4  -1  -1    0.17    0.40
  -4   1   1    0.47    0.65
  -4   1   1    0.18    0.86
   4   1  -1    0.26    0.51
   4   1  -1   -0.63    0.70
  -3  -1   1  701.59   42.31
   3  -1  -1  682.76   54.10
   3   1  -1  788.70   46.50
  -3   1   1  748.63   46.57
   2  -1  -1   -0.38    0.21
  -2  -1   1   -0.06    0.20
  -2   1   1   -0.34    0.38
   2   1  -1   -0.03    0.32
   1  -1  -1   23.67    1.54
  -1  -1   1   21.25    1.50
   1  -1  -1   20.38    1.55
  -1   1   1   25.54    1.73
   1   1  -1   24.80    1.68
   0  -1  -1   -0.17    0.16
   0  -1   1   -0.13    0.16
   0  -1  -1   -0.04    0.25
   0   1  -1   -0.26    0.36
   1  -1   1   13.83    0.91
  -1  -1  -1   12.76    1.03
   1  -1   1   13.92    1.28
  -1   1  -1   14.64    1.19
   1   1   1   13.08    0.95
  -2  -1  -1   -0.23    0.19
   2  -1   1   -0.50    0.27
   2  -1   1   -0.61    0.45
   2  -1   1   -0.09    0.29
  -2   1  -1   -0.22    0.38
   2   1   1   -0.56    0.28
   3  -1   1   13.84    1.61
  -3   1  -1   18.37    1.57
   3   1   1   14.54    1.45
   4  -1   1   -0.62    1.05
   4  -1   1   -0.38    0.28
   4  -1   1    0.75    0.43
  -4  -1  -1    0.39    0.52
   4  -1   1    0.43    0.82
   4  -1   1    0.17    0.44
  -4   1  -1   -0.23    0.59
  -4   1  -1   -0.11    0.86
   4   1   1   -0.40    0.66
   4   1   1    0.00    0.47
   5  -1   1   13.86    2.21
  -5  -1  -1   12.26    1.40
   5  -1   1   12.87    1.25
   5  -1   1   14.40    1.21
   5  -1   1   11.74    1.98
   5  -1   1   16.07    1.86
  -5   1  -1   12.42    2.10
  -5   1  -1   12.69    2.00
   5   1   1   12.80    1.58
   5   1   1   12.26    1.56
  -5   1  -1   10.64    1.76
   6  -1   1   -0.92    0.94
   6  -1   1   -0.25    0.96
   6  -1   1    0.62    0.52
   6  -1   1    0.73    0.53
   6   1   1   -0.55    0.79
  -6   1  -1   -0.41    1.46
  -6   1  -1   -1.27    1.60
   6  -2  -1  213.60   11.32
   6  -2  -1  223.74   12.71
   6   2  -1  272.43   15.37
  -6   2   1  267.87   16.08
  -6   2   1  261.90   15.48
   5  -2  -1   -0.43    0.56
   5  -2  -1    0.23    0.48
   5  -2  -1    0.33    0.70
   5   2  -1    0.14    1.01
  -5   2   1   -1.77    1.11
  -5   2   1    0.76    1.30
   4  -2  -1    7.21    1.52
  -4  -2   1    6.25    0.83
  -4  -2   1    5.82    1.26
  -4  -2   1    6.79    1.19
   4  -2  -1    7.36    1.31
   4  -2  -1    6.24    1.46
   4  -2  -1    4.84    0.91
  -4   2   1    9.92    1.96
   4   2  -1    9.81    1.80
  -4   2   1   10.04    1.85
  -3  -2   1   -0.26    0.44
  -3  -2   1   -0.03    0.52
   3  -2  -1    0.06    0.51
  -3  -2   1    0.02    0.37
   3  -2  -1   -0.06    0.45
   3  -2  -1    0.45    0.84
   3  -2  -1    0.70    0.74
   3  -2  -1    0.20    0.71
  -3   2   1    0.81    0.89
   3   2  -1    0.02    0.66
  -2  -2   1   13.79    1.46
  -2  -2   1   12.83    1.35
   2  -2  -1   15.56    1.13
   2  -2  -1   15.02    1.10
   2  -2  -1   16.65    1.63
   2  -2  -1   15.18    1.37
  -2  -2   1   12.71    1.17
  -2  -2   1   14.57    1.07
   2  -2  -1   11.57    2.03
   2   2  -1   19.01    1.77
  -2   2   1   22.38    1.95
  -1  -2   1    0.15    0.25
   1  -2  -1    0.16    0.34
   1  -2  -1    0.24    0.34
   0  -2  -1  208.62   11.74
   0  -2   1  169.06   11.68
   1  -2   1   -0.20    0.32
  -1  -2  -1   -0.19    0.24
  -1   2  -1    0.04    0.47
  -2  -2  -1    3.86    0.84
   2  -2   1    1.36    1.12
  -2  -2  -1    1.37    0.82
  -2  -2  -1    0.31    0.32
  -2  -2  -1    0.75    0.34
  -2   2  -1    1.12    0.67
   3  -2   1   -0.77    1.01
   3  -2   1   -0.56    0.85
  -3  -2  -1    0.29    0.39
   3  -2   1   -0.18    0.42
  -3  -2  -1    0.29    0.41
  -3  -2  -1   -0.26    0.46
  -3   2  -1    0.12    0.73
  -3   2  -1   -0.13    1.06
  -4  -2  -1    2.62    0.74
  -4  -2  -1    1.57    0.51
  -4  -2  -1    2.21    0.69
  -4   2  -1    2.37    0.96
   4   2   1    1.77    0.87
   5  -2   1    0.24    0.46
   5  -2   1    0.09    0.58
   5  -2   1    0.27    0.81
  -5   2  -1   -0.02    1.23
   5   2   1    0.31    0.94
   6  -2   1   17.41    1.36
   6  -2   1   20.21    1.95
   6   2   1   19.93    1.80
  -6   2  -1   20.95    2.32
  -6   2  -1   21.09    2.46
  -2  -4   1    3.07    0.93
  -1  -4   1    0.24    0.69
   1  -4  -1    0.25    0.83
   0  -4   1   63.72    4.35
   0  -4  -1   76.83    4.97
   1  -4   1   -0.58    0.60
   6  -1  -2   -0.06    0.60
   6  -1  -2   -0.36    0.99
   6  -1  -2   -0.02    0.48
  -6  -1   2    0.94    0.60
  -6   1   2   -0.89    1.21
   6   1  -2    0.47    0.83
  -6   1   2   -0.22    1.24
  -5  -1   2    6.42    1.05
   5  -1  -2    5.92    0.95
  -5  -1   2    2.69    1.51
   5  -1  -2    5.80    1.30
   5  -1  -2    4.01    0.95
   5  -1  -2    6.26    1.24
   5  -1  -2    6.40    0.89
  -5   1   2    5.42    1.41
  -5   1   2    4.43    1.12
   5   1  -2    5.84    1.09
   5   1  -2    5.56    1.17
  -5   1   2    5.82    1.38
   4  -1  -2   -0.29    0.38
  -4  -1   2   -0.04    0.32
  -4  -1   2    0.14    0.52
  -4  -1   2    0.27    1.09
   4  -1  -2    1.28    0.91
   4  -1  -2    0.34    0.48
   4  -1  -2    0.22    0.73
   4  -1  -2    0.19    0.30
   4   1  -2    0.51    0.56
   4   1  -2    0.40    0.81
  -4   1   2   -0.51    0.90
  -4   1   2   -0.16    0.64
   3  -1  -2   14.90    1.56
   3  -1  -2   15.44    1.87
  -2  -1   2   -0.10    0.20
  -2   1   2   -0.30    0.40
   2   1  -2   -0.12    0.36
  -1  -1   2   22.27    1.56
   1  -1  -2   21.77    1.69
   1  -1  -2   22.67    1.65
  -1   1   2   27.57    1.93
   1   1  -2   29.39    1.95
   0  -1   2   -0.22    0.15
   0  -1  -2    0.08    0.32
   0  -1  -2   -0.03    0.16
   0   1  -2    0.05    0.45
   0   1  -2    0.07    0.26
  -1  -1  -2  120.03    7.72
   1  -1   2  125.98    9.81
   1  -1   2  124.53    9.86
   1  -1   2  128.63    9.62
  -1   1  -2  140.24    8.71
   2  -1   2    0.09    0.31
  -2  -1  -2   -0.48    0.17
   2  -1   2   -0.34    0.47
   2  -1   2   -0.11    0.28
   2   1   2   -0.35    0.28
  -2   1  -2    0.09    0.43
   3  -1   2   36.08    3.20
   3  -1   2   36.23    3.20
  -3  -1  -2   36.64    2.50
  -3   1  -2   31.47    2.49
   3   1   2   35.81    2.44
   4  -1   2   -1.60    1.05
  -4  -1  -2   -1.03    0.50
   4  -1   2    0.19    0.32
   4  -1   2   -0.38    0.83
   4  -1   2    0.08    0.44
   4  -1   2   -0.37    0.41
  -4   1  -2   -0.49    0.61
   4   1   2   -2.19    0.66
  -4   1  -2   -0.35    0.89
   4   1   2   -1.07    0.43
   5  -1   2  126.78    6.60
   5  -1   2  117.72    6.38
  -5  -1  -2  124.67    7.78
   5  -1   2  112.47    7.83
   5  -1   2  125.67   10.11
   5  -1   2  129.58    8.37
  -5   1  -2  131.09    8.15
   5   1   2  128.61    7.45
   5   1   2  116.46    8.04
  -5   1  -2  114.00    8.23
  -5   1  -2  131.53    7.85
   6  -1   2    0.88    1.03
   6  -1   2    0.59    0.55
   6  -1   2   -0.13    0.50
   6  -1   2    0.42    1.15
  -6   1  -2   -0.25    1.71
  -6   1  -2   -3.18    1.55
   6   1   2   -2.33    0.75
   6  -2  -2   58.93    3.61
   6  -2  -2   54.97    3.16
  -6   2   2   83.95    5.47
  -6   2   2   86.25    5.62
   5  -2  -2   -0.71    0.57
   5  -2  -2   -1.02    0.60
   5  -2  -2    0.16    0.47
   5   2  -2   -0.39    1.01
  -5   2   2   -1.36    1.22
  -5   2   2   -0.24    1.25
   4  -2  -2    9.09    1.61
  -4  -2   2    7.76    1.28
   4  -2  -2    8.13    0.98
  -4  -2   2    5.43    0.84
   4  -2  -2   10.74    1.39
  -4  -2   2    6.28    1.35
   4  -2  -2    5.07    1.03
  -4   2   2    8.15    1.86
   4   2  -2    9.54    1.88
  -4   2   2   11.05    2.04
   4   2  -2   11.48    1.95
   3  -2  -2   -0.08    0.88
  -3  -2   2   -0.06    0.38
  -3  -2   2   -0.55    0.48
  -3  -2   2   -0.09    0.45
   3  -2  -2    1.20    0.76
   3  -2  -2    0.03    0.50
   3  -2  -2    0.03    0.42
   3   2  -2    0.88    0.81
  -3   2   2   -0.19    0.82
  -2  -2   2    5.32    0.78
   2  -2  -2    4.52    0.79
  -2  -2   2    4.97    0.65
   2  -2  -2    1.78    0.76
  -2  -2   2    5.59    0.92
   2  -2  -2    3.45    0.58
   2   2  -2    6.35    1.17
  -2   2   2    5.11    1.20
   1  -2  -2    0.60    0.39
  -1  -2   2   -0.13    0.23
   1  -2  -2    0.15    0.35
   1   2  -2    0.49    0.52
   0  -2  -2   53.38    3.52
   0  -2   2   52.09    3.48
   0   2  -2   16.14    1.66
  -1  -2  -2   -0.25    0.24
   1  -2   2    0.14    0.35
  -1   2  -2   -0.23    0.51
   2  -2   2   93.69    6.17
  -2  -2  -2   92.75    5.49
  -2  -2  -2   97.80    6.00
  -2  -2  -2   92.43    4.95
   2  -2   2   86.88    6.24
  -2  -2  -2   90.94    6.39
  -2   2  -2  103.10    6.70
  -3  -2  -2   -0.50    0.39
  -3  -2  -2    0.10    0.44
   3  -2   2    0.08    0.94
  -3  -2  -2    0.05    0.36
   3  -2   2   -0.24    0.45
   3  -2   2   -0.04    0.80
  -3   2  -2   -1.05    0.96
  -3   2  -2   -0.07    0.67
   4  -2   2  154.21    9.35
  -4  -2  -2  155.99    9.18
   4  -2   2  157.52    7.76
   4  -2   2  129.72    9.56
  -4  -2  -2  159.53    8.20
  -4   2  -2  182.02   10.96
  -4   2  -2  177.50   11.77
   4   2   2  188.18   11.64
   5  -2   2    0.28    0.46
   5  -2   2   -0.02    0.85
   5   2   2    0.06    0.88
  -5   2  -2   -0.20    1.24
   6  -2   2    2.28    0.99
   6  -2   2    3.26    0.60
  -6   2  -2    2.76    1.58
   6   2   2    3.54    0.90
  -6   2  -2    2.37    1.37
  -1  -4   2   -0.70    0.79
   1  -4  -2   -0.29    0.93
   0  -4  -2   24.45    2.11
   0  -4   2   15.93    1.82
   1  -4   2    0.19    0.41
   1  -4   2    0.55    0.79
   6  -1  -3   -0.01    0.44
  -6  -1   3   -0.24    0.54
  -6   1   3   -0.51    1.16
  -6   1   3   -0.52    1.20
   6   1  -3   -0.54    0.88
   5  -1  -3   45.09    2.73
   5  -1  -3   44.40    2.59
   5  -1  -3   44.97    3.57
  -5  -1   3   45.28    3.22
   5  -1  -3   46.08    3.16
   5   1  -3   47.88    3.24
   5   1  -3   47.14    3.52
  -5   1   3   42.62    3.53
  -5   1   3   43.24    3.42
  -5   1   3   44.49    3.50
  -4  -1   3    0.12    0.55
   4  -1  -3   -0.73    0.67
  -4  -1   3   -0.20    0.31
   4  -1  -3    3.45    0.90
   4  -1  -3   -0.21    0.38
  -4  -1   3   -0.16    1.01
   4  -1  -3    0.03    0.44
   4  -1  -3   -0.17    0.29
   4  -1  -3   -1.02    0.61
  -4   1   3   -0.30    0.68
  -4   1   3    0.46    0.97
   4   1  -3    0.04    0.82
  -4   1   3    0.65    0.93
   4   1  -3   -0.24    0.53
   3  -1  -3   25.61    2.77
   3  -1  -3   31.74    2.60
  -3  -1   3   30.33    2.13
   3   1  -3   36.77    2.74
  -3   1   3   38.50    2.84
   2   1  -3   -0.57    0.38
  -2   1   3   -0.33    0.42
  -1  -1   3  239.23   14.41
   1  -1  -3  237.54   14.46
   1  -1  -3  220.89   13.91
  -1  -1   3  239.04   17.88
   1   1  -3  323.91   19.60
  -1   1   3  321.38   19.55
   0  -1  -3    0.02    0.41
   0  -1   3   -0.14    0.16
   0  -1  -3   -0.22    0.18
   0  -1   3   -0.24    0.17
   0   1  -3    0.00    0.25
   0   1  -3   -0.59    0.49
   1  -1   3  618.97   54.04
   1  -1   3  698.59   41.65
   1  -1   3  728.36   52.50
  -1  -1  -3  718.27   42.15
   1   1   3  717.65   44.60
  -1   1  -3  765.10   44.89
   2  -1   3   -0.18    0.29
   2  -1   3    0.03    0.30
  -2  -1  -3   -0.26    0.18
  -2   1  -3    0.02    0.49
   2   1   3   -0.50    0.29
   3  -1   3    3.51    0.89
   3  -1   3    3.61    0.80
  -3  -1  -3    3.49    0.74
   3   1   3    2.52    0.55
  -3   1  -3    3.43    0.77
   4  -1   3   -0.11    0.32
   4  -1   3    1.25    1.15
   4  -1   3   -0.35    0.91
  -4  -1  -3   -0.86    0.57
   4  -1   3   -0.04    0.42
   4   1   3   -1.03    0.48
   4   1   3    1.03    0.74
  -4   1  -3    0.44    0.73
  -4   1  -3   -0.53    1.07
   5  -1   3   10.37    2.28
   5  -1   3   12.46    1.16
   5  -1   3    9.58    1.08
  -5  -1  -3    9.71    1.23
   5  -1   3    6.64    1.61
  -5   1  -3    9.15    2.00
   5   1   3    9.20    1.41
   5   1   3    7.82    1.35
  -5   1  -3    8.67    1.83
   6  -1   3   -0.45    1.11
   6  -1   3   -0.43    1.00
   6  -1   3    0.07    0.57
   6  -1   3    0.41    0.56
  -6   1  -3    0.23    1.72
   6   1   3   -1.33    0.84
  -6   1  -3   -0.88    1.60
   6  -2  -3   10.05    0.93
  -6   2   3   18.81    2.03
  -6   2   3   18.96    2.18
   6   2  -3   15.41    1.86
   5  -2  -3   -0.51    0.59
   5  -2  -3    0.15    0.55
   5  -2  -3   -0.21    0.92
  -5   2   3   -1.50    1.29
  -5   2   3    0.83    1.40
   5   2  -3   -0.99    1.09
   4  -2  -3   66.50    4.24
   4  -2  -3   67.37    3.59
   4  -2  -3   67.19    4.79
  -4  -2   3   65.41    4.45
  -4  -2   3   67.12    4.52
  -4  -2   3   55.24    5.05
   4   2  -3  106.12    7.07
  -4   2   3   95.53    6.97
   4   2  -3  101.22    6.44
  -4   2   3  100.53    6.68
   3  -2  -3    0.02    0.43
  -3  -2   3    0.32    0.48
  -3  -2   3   -0.37    0.52
   3  -2  -3   -0.82    0.96
  -3  -2   3   -0.08    0.37
   3  -2  -3   -0.38    0.66
   3  -2  -3    0.23    0.51
   3   2  -3    1.34    0.84
  -3   2   3   -0.26    0.79
   2  -2  -3  229.24   15.57
  -2  -2   3  251.91   15.36
  -2  -2   3  247.53   12.97
   2  -2  -3  244.65   14.46
  -2  -2   3  248.68   16.04
   2  -2  -3  256.95   15.78
   2  -2  -3  245.88   12.90
  -2  -2   3  244.31   14.50
  -2  -2   3  251.29   15.92
   2   2  -3  332.85   20.30
  -2   2   3  326.62   20.20
   1  -2  -3    0.05    0.36
   1  -2  -3   -0.47    0.74
   1  -2  -3    0.00    0.48
  -1  -2   3   -0.12    0.25
   1   2  -3    0.02    0.61
   0  -2   3   16.12    1.31
   0  -2  -3   14.87    1.38
   0  -2   3   14.55    1.16
   0  -2   3   15.67    1.15
   0   2  -3    9.22    1.44
  -1  -2  -3   -0.14    0.28
  -1   2  -3   -0.23    0.58
   2  -2   3   56.40    4.85
  -2  -2  -3   67.74    3.62
  -2  -2  -3   72.84    4.46
   2  -2   3   70.09    4.23
  -2  -2  -3   59.03    4.92
   2  -2   3   68.34    4.55
  -2   2  -3   80.02    5.39
   3  -2   3    0.25    0.47
   3  -2   3    0.17    0.98
   3  -2   3   -0.49    0.95
  -3  -2  -3   -0.09    0.36
  -3  -2  -3   -0.50    0.42
  -3  -2  -3    0.06    0.38
  -3   2  -3    0.59    0.75
  -3   2  -3   -1.23    0.99
   4  -2   3  163.46    8.35
   4  -2   3  161.10   10.03
  -4  -2  -3  165.86    9.86
  -4  -2  -3  162.16    8.81
   4  -2   3  164.40   10.44
  -4   2  -3  179.31   11.65
  -4   2  -3  181.12   10.89
   5  -2   3    0.36    0.87
   5  -2   3   -0.62    0.43
  -5   2  -3   -1.25    1.27
   5   2   3    0.36    0.85
   6  -2   3    0.51    0.89
  -6   2  -3   -0.02    1.45
  -6   2  -3   -1.27    1.19
   6   2   3   -0.90    0.68
   1  -4  -3    0.33    0.98
  -1  -4   3   -0.23    0.86
   0  -4   3    7.65    1.55
   0  -4   3    5.47    0.77
   0  -4  -3    5.78    1.36
   1  -4   3    0.35    0.44
   1  -4   3   -0.28    0.89
   6  -1  -4   -0.98    1.07
  -6  -1   4    0.35    0.59
   6  -1  -4    0.88    0.53
  -6  -1   4   -0.01    1.28
   6  -1  -4    1.59    1.21
   6   1  -4   -0.94    0.88
  -6   1   4   -0.12    1.18
  -6   1   4   -1.36    1.17
   5  -1  -4  307.62   15.86
   5  -1  -4  310.51   19.17
  -5  -1   4  323.12   18.90
  -5  -1   4  290.01   19.14
  -5   1   4  325.04   18.29
  -5   1   4  301.54   19.72
   5   1  -4  315.77   19.68
   5   1  -4  318.79   18.11
  -5   1   4  319.24   18.89
  -4  -1   4   -0.08    0.32
   4  -1  -4    0.57    0.58
   4  -1  -4   -0.10    0.61
   4  -1  -4   -0.36    0.29
  -4  -1   4   -0.21    0.94
   4  -1  -4    0.25    0.41
  -4  -1   4    0.07    0.57
   4  -1  -4    0.30    0.72
   4   1  -4    0.14    0.59
  -4   1   4    0.27    0.72
  -4   1   4   -0.89    1.01
   4   1  -4   -0.39    0.83
  -4   1   4    1.27    1.06
   3  -1  -4    4.19    0.93
   3  -1  -4    3.73    0.88
  -3   1   4    6.10    1.21
   3   1  -4    4.47    0.84
   2   1  -4   -0.14    0.43
  -2   1   4   -0.41    0.46
   1  -1  -4   18.63    1.52
   1  -1  -4   19.29    1.56
  -1  -1   4   14.77    1.53
  -1  -1   4   18.79    1.61
   1   1  -4   22.72    1.74
  -1   1   4   20.58    1.55
   0  -1   4    0.00    0.17
   0  -1  -4   -0.29    0.20
   0  -1  -4    0.26    0.55
   0  -1   4   -0.12    0.21
   0  -1   4   -0.29    0.29
   0   1  -4    0.16    0.23
   0   1  -4    0.11    0.53
  -1  -1  -4   43.67    2.87
   1  -1   4   41.78    2.84
   1  -1   4   46.48    3.98
   1  -1   4   45.29    3.58
   1   1   4   48.37    2.85
  -1   1  -4   35.73    3.30
  -2  -1  -4   -0.32    0.21
  -2  -1  -4   -0.46    0.53
   2  -1   4    0.07    0.33
   2   1   4   -0.18    0.27
  -2   1  -4    0.18    0.62
  -3  -1  -4    1.65    0.58
   3  -1   4    0.38    0.36
   3  -1   4    0.26    0.43
  -3   1  -4    0.25    0.55
   3   1   4    0.69    0.41
   4  -1   4    1.41    1.06
   4  -1   4    0.04    0.44
   4  -1   4   -0.23    0.35
   4  -1   4    0.31    1.08
  -4  -1  -4   -0.09    0.60
   4   1   4   -0.14    0.64
  -4   1  -4    0.53    1.26
  -4   1  -4   -0.41    0.77
   4   1   4    0.29    0.51
   5  -1   4    5.22    1.39
   5  -1   4    5.42    0.95
   5  -1   4    3.59    1.47
  -5  -1  -4    2.96    0.78
   5  -1   4    3.52    0.67
  -5   1  -4    2.98    1.24
  -5   1  -4    4.63    1.98
   5   1   4    3.22    0.89
   5   1   4    4.62    1.06
   6  -1   4   -1.17    0.97
   6  -1   4    0.86    0.61
   6  -1   4    0.42    0.60
   6  -1   4   -0.19    1.03
   6   1   4   -0.86    0.88
  -6   1  -4    2.50    1.80
   6  -2  -4    2.19    0.43
  -6   2   4    2.75    1.36
   6   2  -4    6.45    1.30
  -6   2   4    6.39    1.39
   5  -2  -4    0.10    0.57
   5  -2  -4   -0.13    0.43
   5  -2  -4    0.21    1.07
  -5   2   4    0.10    1.37
  -5   2   4   -0.97    1.41
   5   2  -4   -0.34    1.27
  -4  -2   4   52.96    3.97
   4  -2  -4   63.30    4.37
  -4  -2   4   48.77    4.72
   4  -2  -4   57.65    3.30
  -4  -2   4   57.64    3.94
   4  -2  -4   55.42    3.74
   4   2  -4   83.45    5.49
  -4   2   4   75.56    5.84
  -4   2   4   88.16    5.71
  -4   2   4   86.49    5.73
   4   2  -4   79.13    6.03
  -3  -2   4   -0.18    0.37
   3  -2  -4    0.32    0.64
   3  -2  -4   -0.17    1.05
  -3  -2   4    0.27    0.77
  -3  -2   4   -0.35    0.56
   3  -2  -4    0.35    0.51
   3   2  -4    0.17    0.82
  -3   2   4   -0.16    0.69
  -2  -2   4  234.69   14.88
  -2  -2   4  235.03   14.35
  -2  -2   4  220.75   15.06
  -2  -2   4  228.89   13.56
   2  -2  -4  231.53   12.03
   2  -2  -4  234.48   13.47
   2  -2  -4  222.04   14.75
  -2  -2   4  229.41   12.13
   2   2  -4  290.97   18.05
   1  -2  -4   -0.10    0.39
   1  -2  -4    0.15    0.64
   1  -2  -4   -0.51    0.80
  -1  -2   4    0.19    0.49
  -1  -2   4    0.00    0.85
  -1  -2   4   -0.34    0.26
   1  -2  -4    0.05    0.24
   1   2  -4   -0.28    0.67
   0  -2   4    2.40    0.53
   0  -2   4    2.70    0.57
   0  -2   4    1.57    0.39
   0  -2  -4    1.68    0.44
   0   2  -4    2.75    0.85
  -1  -2  -4   -0.25    1.02
  -1  -2  -4    0.01    0.31
  -1   2  -4   -0.50    0.64
  -2  -2  -4    1.63    0.35
  -2  -2  -4    1.54    0.42
   2  -2   4    1.66    0.81
   2  -2   4    2.72    1.59
  -2  -2  -4   -0.78    1.19
   2  -2   4    1.80    0.94
  -2   2  -4    1.99    0.85
   3  -2   4   -0.31    0.98
   3  -2   4   -0.89    0.99
  -3  -2  -4   -0.19    0.36
  -3  -2  -4   -0.20    0.45
   3  -2   4   -0.17    0.43
  -3  -2  -4   -0.29    0.39
  -3   2  -4    0.16    0.71
  -3   2  -4   -0.04    1.06
   4  -2   4   34.63    3.04
   4  -2   4   33.73    2.94
  -4  -2  -4   35.02    2.27
   4  -2   4   34.89    2.16
  -4  -2  -4   33.72    2.55
  -4   2  -4   40.45    3.35
  -4   2  -4   33.44    3.36
   5  -2   4   -1.15    0.78
   5  -2   4   -0.19    0.49
  -5   2  -4   -0.89    1.38
   5   2   4   -0.17    0.88
   6  -2   4    3.37    0.64
   6  -2   4    3.10    0.90
  -6   2  -4    0.29    1.26
   6   2   4    1.84    0.81
  -6   2  -4    4.54    1.53
  -1  -4   4    1.22    0.90
   1  -4  -4    0.25    1.02
   0  -4   4    1.28    0.99
   0  -4  -4    2.18    1.14
   1  -4   4   -0.74    0.94
   1  -4   4    0.42    0.56
   6  -1  -5   -0.12    0.47
  -6  -1   5   -0.91    0.52
   6  -1  -5   -1.34    1.02
  -6  -1   5    1.28    1.28
   6  -1  -5    0.30    1.27
  -6   1   5    1.53    1.29
  -6   1   5   -0.12    1.18
   6   1  -5    0.27    0.99
   5  -1  -5   20.27    2.24
  -5  -1   5   18.33    1.86
  -5  -1   5   19.01    1.78
   5  -1  -5   20.50    1.54
  -5   1   5   21.16    2.59
   5   1  -5   21.62    2.26
  -5   1   5   20.67    2.35
  -5   1   5   22.01    2.27
   5   1  -5   19.74    2.06
  -4  -1   5    0.10    0.58
   4  -1  -5    0.04    0.34
   4  -1  -5    0.15    0.75
  -4  -1   5    0.44    0.92
  -4  -1   5    0.16    0.35
   4   1  -5   -0.60    0.88
   4   1  -5    0.40    0.68
  -4   1   5    0.04    1.07
  -4   1   5   -0.89    1.07
  -4   1   5   -0.52    0.66
   3  -1  -5    2.73    0.73
  -3  -1   5    1.53    0.67
   3   1  -5    1.85    0.67
  -3   1   5    2.12    0.71
   2   1  -5   -0.67    0.46
  -2   1   5   -1.14    0.44
   1  -1  -5    9.61    1.14
   1  -1  -5    8.43    0.87
  -1  -1   5    6.20    1.20
   1  -1  -5    9.50    1.12
  -1  -1   5    6.85    0.98
   1   1  -5   10.36    1.36
  -1   1   5    8.25    0.91
   0  -1   5    0.09    0.29
   0  -1   5   -0.09    0.38
   0  -1  -5   -0.03    0.25
   0  -1   5   -0.19    0.20
   0  -1  -5   -0.38    0.62
   0   1   5    0.06    0.39
   0   1  -5   -0.13    0.60
   1  -1   5  310.34   22.82
  -1  -1  -5  300.48   19.23
   1  -1   5  294.30   18.12
  -1  -1  -5  273.82   16.77
  -1  -1  -5  311.97   18.30
   1   1   5  307.99   18.75
  -2  -1  -5   -0.78    0.53
   2  -1   5   -0.18    0.34
  -2  -1  -5   -0.39    0.22
   2   1   5   -0.08    0.33
  -2   1  -5   -0.50    0.74
   3  -1   5   43.89    3.78
   3  -1   5   46.34    3.04
  -3  -1  -5   37.06    2.91
   3  -1   5   44.06    3.50
  -3  -1  -5   45.87    2.92
   3   1   5   47.89    3.34
  -3   1  -5   50.18    3.73
   4  -1   5   -0.09    0.40
  -4  -1  -5   -0.35    0.62
   4  -1   5   -0.20    0.98
   4  -1   5    0.16    0.48
   4  -1   5   -0.43    1.05
   4   1   5    0.03    0.69
  -4   1  -5   -0.12    1.50
  -4   1  -5    0.94    0.97
   4   1   5   -0.02    0.52
   5  -1   5  135.38    8.25
   5  -1   5  135.25    7.11
   5  -1   5  125.94    6.86
  -5   1  -5  119.72    8.48
   5   1   5  131.80    7.67
   6  -1   5    0.62    0.68
   6  -1   5    0.14    0.63
   6  -1   5   -0.39    0.89
   6  -1   5   -0.03    1.03
   6   1   5   -1.19    0.92
  -6   2   5    0.24    1.26
  -6   2   5    1.52    1.25
   6   2  -5    0.77    1.10
   5  -2  -5    0.65    1.12
   5  -2  -5   -0.13    0.43
  -5   2   5    0.20    1.61
  -5   2   5   -1.31    1.35
   5   2  -5   -0.21    1.24
   4  -2  -5    0.14    0.48
  -4  -2   5    1.00    1.17
  -4  -2   5    0.42    0.47
   4  -2  -5   -0.33    1.23
  -4   2   5    0.28    1.46
  -4   2   5    2.88    1.65
  -4   2   5    1.15    0.91
   4   2  -5    0.94    1.33
   4   2  -5   -0.32    1.17
   3  -2  -5   -1.04    1.14
  -3  -2   5   -0.20    0.41
  -3  -2   5    0.20    0.81
   3  -2  -5   -0.27    0.44
   3  -2  -5    0.21    0.71
   3   2  -5   -1.17    1.07
  -3   2   5    0.28    0.66
   3   2  -5   -0.16    0.95
  -2  -2   5   24.15    1.97
   2  -2  -5   18.26    2.22
   2  -2  -5   23.16    1.50
  -2  -2   5   24.93    2.23
  -2  -2   5   23.87    1.86
  -2  -2   5   24.45    1.72
   2  -2  -5   24.05    1.95
  -2  -2   5   22.61    1.80
   2   2  -5   28.43    2.75
   1  -2  -5   -0.20    0.40
  -1  -2   5    0.11    0.55
  -1  -2   5    0.00    0.52
  -1  -2   5   -0.11    0.30
   1  -2  -5    0.02    0.27
   1  -2  -5   -0.73    0.86
   1   2  -5   -0.60    0.69
   0  -2   5   11.51    1.21
   0  -2  -5   11.80    1.84
   0  -2  -5   11.08    1.29
   0  -2   5   11.05    1.13
   0  -2   5   10.75    1.23
   0   2  -5    9.96    1.54
  -1  -2  -5    0.09    0.32
  -1  -2  -5    0.25    1.10
  -1  -2  -5    0.43    0.51
   1  -2   5    0.06    0.24
   1  -2   5   -0.03    0.45
  -1   2  -5    0.00    0.73
   2  -2   5   42.60    3.30
  -2  -2  -5   46.80    3.12
  -2  -2  -5   34.18    3.59
   2  -2   5   44.67    2.28
   2  -2   5   47.35    3.20
  -2  -2  -5   45.58    2.50
  -2   2  -5   19.40    2.31
  -3  -2  -5   -0.37    0.40
  -3  -2  -5    1.05    0.46
  -3  -2  -5   -0.11    0.53
   3  -2   5   -0.08    0.46
   3  -2   5   -0.10    1.03
   3  -2   5   -0.55    0.91
  -3   2  -5    0.38    1.19
  -3   2  -5    1.34    0.91
   4  -2   5  139.08    8.42
  -4  -2  -5  144.42    8.43
   4  -2   5  132.12    8.86
   4  -2   5  132.42    7.09
  -4  -2  -5  135.99    7.48
  -4   2  -5  117.83    7.65
   5  -2   5    0.99    0.82
   5  -2   5    0.38    0.55
  -5   2  -5    0.24    1.53
   5   2   5    0.80    0.86
   1  -4  -5   -1.02    0.96
  -1  -4   5    0.87    0.86
   0  -4   5    6.49    1.12
   0  -4  -5    5.45    1.26
   6  -1  -6    0.93    1.30
  -6  -1   6    0.75    0.65
   6  -1  -6    0.09    0.47
  -6  -1   6    0.91    1.19
   6  -1  -6   -0.48    0.98
   6   1  -6    0.57    1.05
  -6   1   6   -0.47    1.26
  -6   1   6   -0.30    1.23
   5  -1  -6  106.99    5.82
   5  -1  -6  109.22    7.29
  -5  -1   6  107.03    6.98
  -5  -1   6  106.78    7.15
  -5   1   6  113.98    7.22
  -5   1   6  107.54    7.60
  -5   1   6  108.20    7.10
   5   1  -6  105.80    7.53
   5   1  -6  118.34    6.89
   4  -1  -6   -0.20    0.34
  -4  -1   6   -0.41    0.39
  -4  -1   6    0.02    0.57
   4  -1  -6   -0.07    0.81
  -4  -1   6    0.30    0.99
  -4   1   6   -1.65    1.25
  -4   1   6   -0.33    1.17
   4   1  -6   -0.89    0.70
   4   1  -6   -0.02    1.00
  -4   1   6    0.99    0.83
  -3  -1   6   54.99    3.51
   3  -1  -6   43.22    2.76
   3  -1  -6   50.43    3.38
  -3   1   6   63.07    4.27
   3   1  -6   58.59    4.25
  -2  -1   6   -0.76    0.66
  -2   1   6   -0.18    0.49
   2   1  -6    0.04    0.55
   1  -1  -6  330.07   19.70
   1  -1  -6  339.00   18.71
  -1  -1   6  332.81   20.42
   1   1  -6  330.25   20.02
  -1   1   6  321.69   19.79
   0  -1  -6    0.25    0.67
   0  -1  -6   -0.58    0.33
   0  -1  -6   -0.31    0.49
   0  -1   6   -0.51    0.24
   0  -1   6   -1.09    0.49
   0   1  -6   -0.03    0.62
   0   1   6   -1.02    0.47
  -1  -1  -6  233.95   14.44
   1  -1   6  230.44   17.15
   1  -1   6  219.18   13.64
  -1  -1  -6  200.84   12.61
  -1  -1  -6  226.41   13.73
   1   1   6  115.12    7.32
   2  -1   6   -0.38    0.39
  -2  -1  -6    0.20    0.55
  -2   1  -6   -1.05    0.79
   2   1   6   -0.31    0.41
  -3  -1  -6  107.06    6.59
   3  -1   6  105.56    6.86
  -3  -1  -6  107.08    6.34
   3   1   6  104.64    6.80
  -3   1  -6  107.68    7.29
  -4  -1  -6   -0.42    0.56
   4  -1   6   -1.71    0.96
   4  -1   6   -0.99    0.47
   4  -1   6   -0.11    0.47
   4  -1   6   -1.10    0.88
   4   1   6    0.50    0.62
  -4   1  -6    0.70    1.69
   4   1   6    0.30    0.48
  -4   1  -6   -1.07    1.13
   4   1   6   -1.26    0.75
   5  -1   6   59.37    4.26
   5  -1   6   61.72    3.54
   5  -1   6   63.85    3.69
   5   1   6   62.81    4.26
   6  -1   6    0.03    0.67
   6  -1   6   -0.62    0.74
   6  -1   6    0.27    0.69
   6  -1   6   -0.02    1.03
   6   1   6    0.37    1.11
  -6   2   6    3.21    1.35
   6   2  -6    3.16    1.21
  -6   2   6    2.56    1.40
   5  -2  -6   -0.90    1.05
   5  -2  -6   -0.13    0.41
   5   2  -6   -0.62    1.29
  -5   2   6    0.58    1.40
  -5   2   6   -0.38    1.58
  -4  -2   6   48.38    3.47
  -4  -2   6   47.42    3.45
   4  -2  -6   37.65    2.59
   4  -2  -6   45.21    3.68
  -4   2   6   70.79    4.83
  -4   2   6   76.68    4.92
  -4   2   6   54.21    4.85
   4   2  -6   56.96    5.40
   4   2  -6   70.16    4.70
   3  -2  -6    0.39    1.23
  -3  -2   6   -0.33    0.46
   3  -2  -6    0.20    0.47
   3   2  -6   -1.50    0.95
   3   2  -6    0.75    1.15
  -3   2   6    1.91    0.74
   3   2  -6    0.79    1.17
  -2  -2   6  254.51   15.58
   2  -2  -6  230.01   15.95
  -2  -2   6  268.88   16.45
  -2  -2   6  242.81   16.19
   2  -2  -6  255.93   13.02
  -2  -2   6  247.55   14.75
   2  -2  -6  239.60   14.45
   2   2  -6  272.92   17.36
   2   2  -6  277.69   16.10
   1  -2  -6    0.23    0.32
   1  -2  -6   -0.55    0.40
   1  -2  -6    0.08    0.47
   1  -2  -6    0.09    0.94
  -1  -2   6   -0.09    0.33
  -1  -2   6    0.19    0.66
  -1  -2   6    0.25    0.64
  -1  -2   6    0.11    0.30
   1   2  -6    0.24    0.84
   0  -2   6   87.97    5.75
   0  -2   6   76.09    5.79
   0  -2   6   81.52    3.97
   0  -2   6   89.14    5.24
   0  -2  -6   90.19    5.54
   0  -2  -6   77.23    5.83
   0  -2  -6   87.81    5.27
   0  -2   6   74.34    5.50
   0   2  -6   76.59    5.24
  -1  -2  -6    0.04    1.02
  -1  -2  -6   -0.53    0.37
   1  -2   6    0.02    0.64
  -1  -2  -6   -0.27    0.39
  -1  -2  -6    0.08    0.37
   1  -2   6    0.06    0.22
   1  -2   6    0.15    1.05
  -1  -2  -6   -0.82    0.52
  -1   2  -6    0.84    0.83
   2  -2   6  219.06   11.28
  -2  -2  -6  228.02   11.81
   2  -2   6  229.21   14.06
  -2  -2  -6  237.07   12.90
   2  -2   6  219.56   13.06
  -2  -2  -6  225.25   14.02
   2  -2   6  212.15   10.20
  -2   2  -6   63.32    4.43
   3  -2   6    0.63    1.04
   3  -2   6    0.39    0.83
  -3  -2  -6   -0.02    0.64
   3  -2   6    0.80    0.50
  -3  -2  -6    0.39    0.52
  -3   2  -6    0.74    0.91
  -3   2  -6    0.95    1.30
  -4  -2  -6   27.47    2.08
   4  -2   6   28.76    1.97
   4  -2   6   29.16    2.55
  -4  -2  -6   27.98    2.49
   4  -2   6   27.96    2.43
  -4   2  -6   12.63    2.49
   5  -2   6    0.16    0.58
   5  -2   6    0.63    0.74
   5   2   6    0.12    0.87
  -5   2  -6   -1.02    1.46
  -6  -1   7    0.35    0.69
   6  -1  -7    0.10    1.16
   6  -1  -7   -0.08    0.42
   6  -1  -7   -0.01    0.72
  -6  -1   7   -0.70    1.03
  -6   1   7    0.75    1.33
   6   1  -7    0.67    1.07
  -6   1   7   -0.94    1.24
  -5  -1   7   89.39    5.79
   5  -1  -7   85.15    4.75
  -5  -1   7   88.58    6.02
   5  -1  -7   81.58    5.96
  -5   1   7   95.32    6.44
  -5   1   7   99.25    6.50
   5   1  -7   97.71    6.16
   4  -1  -7    0.44    0.85
  -4  -1   7   -0.18    1.02
  -4  -1   7   -1.36    0.43
   4  -1  -7   -0.46    0.37
   4   1  -7   -0.31    0.83
  -4   1   7    0.17    0.84
  -4   1   7   -3.03    1.22
   4   1  -7   -0.33    1.04
  -4   1   7   -0.54    1.23
   3  -1  -7  109.98    6.75
   3  -1  -7   94.89    5.58
  -3  -1   7  111.41    6.88
   3   1  -7  117.66    7.99
  -3   1   7  129.22    7.99
  -3   1   7  122.07    7.68
  -2  -1   7   -0.70    0.65
   2  -1  -7    0.82    0.69
   2  -1  -7   -0.96    0.53
   2   1  -7    0.65    0.59
   2   1  -7   -0.65    0.63
  -2   1   7    0.16    0.55
   1  -1  -7  154.46    9.30
   1  -1  -7  156.38    8.85
  -1  -1   7  151.84    9.66
  -1   1   7  140.03    7.77
   1   1  -7  105.43    7.94
   0  -1   7   -0.11    0.64
   0  -1  -7   -0.26    0.59
   0  -1  -7   -0.09    0.57
   0  -1  -7    0.35    0.43
   0   1   7   -0.31    0.51
   0   1  -7   -0.17    0.67
   1  -1   7    8.01    1.24
   1  -1   7    9.69    1.40
  -1  -1  -7    8.87    1.13
  -1  -1  -7    8.68    1.15
  -1  -1  -7    7.45    1.24
   1   1   7    4.01    0.86
  -1   1  -7    9.62    1.57
   2  -1   7    0.02    0.48
  -2  -1  -7    0.08    0.54
  -2   1  -7   -0.94    0.93
   2   1   7   -0.03    0.55
  -3  -1  -7    6.40    1.17
   3  -1   7    6.50    1.11
  -3  -1  -7    6.85    0.84
  -3  -1  -7    6.35    1.29
   3  -1   7    6.22    1.05
   3  -1   7    7.27    1.26
  -3   1  -7    3.85    1.33
   3   1   7    6.83    1.19
  -3   1  -7    2.46    1.42
   4  -1   7   -0.07    0.56
   4  -1   7    1.12    0.93
   4  -1   7    0.07    0.59
   4  -1   7    0.23    0.97
   4   1   7   -0.25    0.94
  -4   1  -7    0.05    1.28
   4   1   7    0.58    0.70
  -4   1  -7   -0.63    1.66
   5  -1   7   32.76    2.28
   5  -1   7   29.70    2.17
   5  -1   7   26.40    2.46
  -5   1  -7   26.69    3.21
   5   1   7   30.32    2.68
   6  -1   7   -0.74    1.04
   6  -1   7    0.11    0.69
   6  -1   7    0.19    0.69
   6  -1   7   -0.28    0.73
   6   1   7   -0.06    1.13
  -6   1  -7   -0.24    1.02
   5  -2  -7    0.04    0.99
  -5   2   7   -0.78    1.57
  -5   2   7    0.14    1.38
   5   2  -7    0.33    1.34
   4  -2  -7  109.53    7.39
  -4  -2   7  104.74    7.23
  -4   2   7  146.85    9.16
  -4   2   7  149.12    9.43
   4   2  -7  149.53    9.21
  -3  -2   7    0.00    0.58
   3  -2  -7    0.72    0.53
   3  -2  -7   -0.92    1.08
  -3   2   7    0.92    0.71
   3   2  -7    0.78    1.25
   3   2  -7    0.11    1.48
  -2  -2   7   29.23    2.00
   2  -2  -7   28.56    2.58
   2  -2  -7   29.03    1.83
   2  -2  -7   29.15    2.37
  -2  -2   7   27.70    2.47
   2   2  -7   26.75    2.97
   2   2  -7   22.22    2.80
  -1  -2   7    0.92    0.90
   1  -2  -7    0.41    0.54
  -1  -2   7    0.08    0.38
   1  -2  -7   -1.06    0.47
  -1  -2   7    1.95    0.55
   1  -2  -7    0.07    0.36
  -1  -2   7    0.20    0.25
   1  -2  -7    0.06    0.94
   1   2  -7    1.02    0.94
   0  -2  -7   21.42    2.18
   0  -2  -7   20.35    1.36
   0  -2   7   21.03    1.40
   0  -2  -7   23.25    2.02
   0  -2   7   24.24    1.84
   0  -2  -7   23.37    2.26
   0   2  -7   22.74    2.27
  -1  -2  -7   -0.72    0.42
  -1  -2  -7    0.17    0.68
  -1  -2  -7    0.14    0.42
   1  -2   7   -0.26    0.84
   1  -2   7    0.23    0.26
  -1  -2  -7    0.05    0.41
  -1   2  -7   -0.34    0.76
  -1   2  -7    1.38    1.12
   2  -2   7    4.09    0.70
  -2  -2  -7    2.18    0.57
  -2  -2  -7    2.70    0.78
  -2  -2  -7    3.72    0.78
   2  -2   7    2.69    1.11
   2  -2   7    1.96    0.36
  -2   2  -7    2.23    1.32
  -2   2  -7    0.68    0.96
  -3  -2  -7   -0.12    0.81
   3  -2   7    0.14    0.55
  -3  -2  -7   -0.31    0.61
   3  -2   7    0.63    0.81
   3  -2   7    0.49    0.97
  -3   2  -7    0.32    1.32
  -3   2  -7   -1.72    0.81
   4  -2   7    2.59    0.75
  -4  -2  -7    2.10    1.05
  -4  -2  -7    2.33    0.90
   4  -2   7    1.37    0.92
   4  -2   7    2.48    0.87
  -4   2  -7    1.27    1.51
   5  -2   7    0.07    0.65
   5  -2   7    1.25    0.73
  -5   2  -7   -0.84    1.42
   5   2   7   -1.37    0.78
  -6  -1   8   -0.12    1.00
   6  -1  -8    0.89    1.02
  -6  -1   8    0.97    0.79
   6   1  -8    0.12    1.09
  -6   1   8    0.13    1.34
  -6   1   8    2.28    1.34
  -5  -1   8    3.33    1.35
   5  -1  -8    5.99    0.92
  -5  -1   8    6.71    1.26
   5  -1  -8    5.74    1.30
  -5   1   8    4.31    1.82
  -5   1   8    7.41    1.76
   5   1  -8    6.98    1.57
  -4  -1   8   -0.56    1.07
   4  -1  -8    0.28    0.89
  -4  -1   8   -0.66    0.66
   4  -1  -8    0.55    1.06
   4  -1  -8   -0.21    0.41
   4   1  -8   -0.41    0.94
  -4   1   8    0.49    0.90
  -4   1   8   -2.44    1.28
   4   1  -8   -0.02    1.22
  -4   1   8    0.33    1.39
   4   1  -8   -0.01    0.98
  -3  -1   8    5.13    1.36
   3  -1  -8    6.79    1.16
  -3  -1   8    8.58    1.38
   3  -1  -8    4.87    0.77
   3  -1  -8    3.29    0.98
   3   1  -8    9.27    1.75
   3   1  -8    8.83    1.62
  -3   1   8    9.50    1.70
   3   1  -8    4.74    1.13
  -3   1   8    9.52    1.54
  -3   1   8    7.73    1.73
   2  -1  -8   -0.16    0.53
  -2  -1   8   -0.66    0.69
   2  -1  -8   -0.80    0.60
   2  -1  -8   -0.03    0.69
  -2   1   8   -0.35    0.55
   2   1  -8   -0.82    0.70
   1  -1  -8   53.58    3.63
   1  -1  -8   56.10    3.60
   1  -1  -8   54.24    3.55
  -1  -1   8   56.57    3.81
  -1   1   8   42.56    3.13
   0  -1  -8    0.12    0.77
   0  -1  -8    0.45    0.51
   0  -1  -8   -0.25    0.62
   0  -1  -8   -0.58    0.52
   0  -1   8    0.04    0.66
   0   1  -8    0.29    0.64
   0   1   8   -0.18    0.57
  -1  -1  -8   13.29    1.36
   1  -1   8   13.09    1.82
  -1  -1  -8   11.77    1.50
   1  -1   8   12.89    1.65
  -1  -1  -8   14.13    1.41
   1   1   8   10.61    1.45
  -1   1  -8   13.63    1.71
  -2  -1  -8    0.18    0.52
  -2  -1  -8   -0.74    0.60
   2  -1   8   -0.43    0.59
  -2   1  -8   -0.48    0.86
   2   1   8   -0.52    0.65
  -3  -1  -8    1.13    0.64
   3  -1   8    0.88    0.79
   3  -1   8   -0.17    0.64
  -3  -1  -8    0.51    0.79
   3  -1   8    0.16    1.00
  -3   1  -8    0.00    1.07
   3   1   8   -0.51    1.09
   3   1   8   -0.01    0.68
  -3   1  -8    0.07    1.19
  -4  -1  -8    0.98    0.65
   4  -1   8   -0.06    0.67
   4  -1   8    0.57    0.89
   4  -1   8   -0.30    1.10
   4  -1   8    0.42    0.71
   4   1   8    0.26    0.81
  -4   1  -8    0.28    1.29
  -4   1  -8    2.46    1.57
   4   1   8   -0.67    1.05
   5  -1   8  199.42   10.54
   5  -1   8  194.95   10.20
   5  -1   8  196.53   11.58
  -5   1  -8  175.24   10.54
   5   1   8  175.57   10.60
   6  -1   8   -1.20    0.63
   6  -1   8   -1.13    0.66
   6  -1   8    0.29    1.08
   6  -1   8    0.33    0.62
   6   1   8   -0.47    1.10
  -6   1  -8   -0.19    1.03
   5  -2  -8   -0.25    0.89
  -5   2   8   -1.58    1.52
   5   2  -8    1.88    1.43
  -5   2   8   -1.24    1.43
   4  -2  -8    7.78    1.64
  -4   2   8    8.67    1.88
   4   2  -8    7.11    1.86
  -3  -2   8    0.03    0.47
   3  -2  -8    1.02    1.12
   3  -2  -8   -0.14    0.54
  -3  -2   8   -0.28    0.63
   3   2  -8   -0.63    1.50
  -3   2   8    1.10    0.74
   3   2  -8   -0.36    1.26
   2  -2  -8    2.39    1.08
   2  -2  -8    2.65    0.59
   2  -2  -8    0.97    0.55
  -2  -2   8    3.18    0.67
  -2  -2   8    1.10    0.62
   2   2  -8    0.05    1.62
   2   2  -8    1.39    1.27
  -1  -2   8   -0.11    0.29
   1  -2  -8   -0.36    0.43
   1  -2  -8   -1.26    0.83
   1  -2  -8    0.16    0.57
  -1  -2   8    0.17    0.59
  -1  -2   8   -0.20    0.40
   1   2  -8    0.57    1.51
   1   2  -8    0.11    0.90
   0  -2   8   11.81    1.54
   0  -2   8   13.11    1.15
   0  -2  -8   12.44    1.56
   0  -2  -8   14.13    1.67
   0  -2  -8   15.28    2.05
   0  -2  -8   11.84    1.04
   0   2  -8   13.11    2.07
   0   2  -8   14.07    1.90
  -1  -2  -8    0.36    0.78
  -1  -2  -8   -0.39    0.45
  -1  -2  -8   -0.31    0.46
   1  -2   8    0.58    0.30
   1  -2   8   -1.64    0.82
  -1  -2  -8   -0.37    0.42
  -1   2  -8   -1.09    1.02
  -1   2  -8   -0.11    0.80
   2  -2   8  183.80   11.15
  -2  -2  -8  156.29   10.16
  -2  -2  -8  181.85    9.47
  -2  -2  -8  178.30   11.12
   2  -2   8  175.04    8.92
   2  -2   8  169.21    8.09
  -2   2  -8  118.80    8.73
  -2   2  -8  139.84    8.04
  -3  -2  -8    0.63    0.82
  -3  -2  -8   -1.98    0.88
   3  -2   8    0.28    0.93
   3  -2   8   -0.57    0.60
  -3   2  -8    0.81    1.25
  -3   2  -8   -0.13    0.90
   4  -2   8   24.36    2.15
   4  -2   8   24.20    2.27
   4  -2   8   29.16    2.12
  -4  -2  -8   28.27    2.33
  -4  -2  -8   30.29    2.90
  -4   2  -8   16.79    2.52
   5  -2   8   -0.47    0.59
   5  -2   8   -0.32    0.71
   5   2   8    0.22    0.85
  -5   2  -8   -0.06    1.29
  -6  -1   9   -0.02    0.93
  -6  -1   9   -0.69    0.78
   6  -1  -9   -0.03    0.84
  -6   1   9   -0.47    1.17
   6   1  -9   -0.51    1.05
  -6   1   9   -0.78    1.31
   5  -1  -9    4.78    1.02
  -5  -1   9    4.29    1.19
  -5  -1   9    4.72    1.38
  -5   1   9    4.67    1.68
  -5   1   9    5.57    1.85
   5   1  -9    4.02    1.39
  -4  -1   9   -0.60    0.78
   4  -1  -9    0.42    0.87
  -4  -1   9   -0.45    1.13
   4  -1  -9    0.40    1.05
   4  -1  -9   -0.01    0.42
  -4   1   9   -1.25    1.36
   4   1  -9    0.85    1.20
  -4   1   9    0.53    1.00
  -4   1   9    0.58    1.53
   4   1  -9   -0.60    1.32
   3  -1  -9   -0.18    0.85
  -3  -1   9    0.78    1.05
  -3  -1   9    0.69    1.13
   3  -1  -9    1.05    0.73
   3   1  -9    2.03    1.32
  -3   1   9    0.55    1.32
  -3   1   9    0.87    0.91
   3   1  -9    0.53    0.98
  -2  -1   9   -0.61    0.89
   2  -1  -9   -0.57    0.54
  -2  -1   9   -0.78    0.93
   2  -1  -9    0.94    0.72
   2   1  -9   -0.84    0.74
  -2   1   9   -0.36    0.71
   1  -1  -9  355.60   20.87
   1  -1  -9  301.54   19.48
  -1  -1   9  367.84   21.15
   1  -1  -9  346.44   20.37
   1  -1  -9  352.46   20.49
  -1   1   9  183.27   12.15
   1   1  -9  198.20   11.74
   1   1  -9  201.05   12.35
   0  -1  -9    0.61    0.64
   0  -1  -9    0.34    0.70
   0  -1   9   -0.24    0.63
   0  -1  -9    0.31    0.53
   0   1   9   -0.09    0.58
   0   1  -9   -0.27    0.67
  -1  -1  -9  117.11    6.47
   1  -1   9   95.44    8.95
  -1  -1  -9  115.05    7.36
   1   1   9  105.13    7.07
  -1   1  -9  115.35    7.29
   2  -1   9    0.53    0.42
   2  -1   9   -0.52    0.73
  -2  -1  -9    0.68    0.57
  -2  -1  -9    0.01    0.65
  -2   1  -9   -0.13    0.90
  -2   1  -9   -0.03    0.93
   2   1   9   -0.43    0.73
   3  -1   9   44.02    2.92
  -3  -1  -9   42.46    2.94
   3  -1   9   43.62    3.46
   3   1   9   26.12    2.97
   3   1   9   26.64    2.76
  -3   1  -9   33.10    3.10
  -3   1  -9   35.28    2.82
   4  -1   9   -0.16    0.79
   4  -1   9   -0.52    1.14
   4  -1   9   -0.91    0.79
  -4  -1  -9   -0.02    0.64
   4   1   9    1.10    0.90
   4   1   9   -1.26    1.15
  -4   1  -9    1.36    1.34
   5  -1   9   22.78    2.80
   5  -1   9   24.06    2.16
   5  -1   9   28.33    2.21
   5  -1   9   26.63    2.29
   5   1   9   16.92    2.28
   5  -2  -9    0.35    0.85
   5   2  -9   -0.74    1.34
  -5   2   9    1.65    1.62
   4  -2  -9  110.10    7.42
  -4   2   9  107.65    6.68
   4   2  -9   97.34    6.71
   3  -2  -9    0.79    0.69
   3  -2  -9   -0.54    0.90
  -3  -2   9    0.39    0.58
  -3  -2   9   -0.20    0.66
   3   2  -9    0.14    1.64
   3   2  -9   -1.43    1.25
   2  -2  -9   45.15    2.69
   2  -2  -9   45.50    3.34
  -2  -2   9   45.18    3.13
  -2  -2   9   40.39    3.43
   2  -2  -9   40.81    3.38
   2   2  -9   21.00    2.92
   2   2  -9   16.33    2.72
   1  -2  -9    0.19    0.88
  -1  -2   9    0.09    0.33
   1  -2  -9   -0.72    0.62
   1  -2  -9   -0.22    0.54
  -1  -2   9   -0.23    0.73
   1   2  -9    0.73    0.78
   1   2  -9   -0.71    0.97
   1   2  -9    0.02    1.57
   0  -2  -9   19.76    1.33
   0  -2   9   17.61    1.46
   0  -2  -9   17.24    2.07
   0  -2   9   16.65    2.00
   0  -2  -9   20.49    2.39
   0   2  -9   16.90    2.14
   0   2  -9   15.68    1.45
   0   2  -9   20.28    2.24
  -1  -2  -9   -1.05    0.53
   1  -2   9    0.27    0.35
  -1  -2  -9   -0.57    0.81
   1  -2   9   -0.14    0.94
  -1  -2  -9   -0.32    0.52
  -1  -2  -9    0.46    0.45
  -1   2  -9    0.49    1.09
  -1   2  -9   -0.55    0.79
   2  -2   9  161.98    9.69
  -2  -2  -9  123.55    8.18
   2  -2   9  160.83    7.12
  -2  -2  -9  148.15    8.87
   2  -2   9  152.66    7.79
  -2   2  -9  133.90    8.07
  -2   2  -9  127.63    8.85
   3  -2   9   -0.70    0.83
   3  -2   9   -0.37    0.76
  -3  -2  -9    0.94    0.98
  -3  -2  -9   -2.36    0.88
  -3   2  -9    0.25    1.20
  -4  -2  -9   39.28    3.69
   4  -2   9   50.78    2.99
  -4  -2  -9   46.63    3.26
   4  -2   9   42.55    3.24
  -4   2  -9   55.01    4.16
   5  -2   9   -0.92    0.67
  -5   2  -9   -0.22    1.05
  -6  -1  10   -0.23    0.70
  -6  -1  10   -0.43    0.81
   6  -1 -10   -0.74    0.76
  -6   1  10    2.46    1.25
  -6   1  10   -0.36    1.09
   6   1 -10    0.66    1.00
  -5  -1  10   57.98    4.71
  -5  -1  10   66.95    4.43
   5  -1 -10   64.68    4.08
   5   1 -10   47.51    3.55
  -5   1  10   44.38    3.72
  -5   1  10   46.34    3.82
  -4  -1  10   -0.19    0.99
   4  -1 -10   -0.97    1.07
   4  -1 -10   -0.88    0.71
  -4  -1  10    0.30    1.20
  -4   1  10   -0.01    1.45
   4   1 -10   -0.13    1.24
   4   1 -10    1.06    1.39
  -4   1  10   -0.58    1.14
  -4   1  10    0.42    1.59
  -3  -1  10   36.70    3.56
  -3  -1  10   38.42    3.06
   3  -1 -10   35.09    2.81
   3  -1 -10   36.95    2.68
  -3   1  10   30.55    3.00
  -3   1  10   32.12    2.95
   3   1 -10   27.73    3.04
   3   1 -10   29.77    2.94
   2  -1 -10   -0.57    0.58
  -2  -1  10   -0.17    0.99
   2  -1 -10    0.06    0.61
  -2  -1  10    0.06    1.17
   2  -1 -10   -0.46    0.70
  -2   1  10    0.14    0.83
   2   1 -10   -1.33    1.29
   2   1 -10   -0.29    0.86
   2   1 -10   -0.19    0.82
   1  -1 -10   72.39    4.91
  -1  -1  10   69.12    5.87
   1  -1 -10   67.19    4.52
   1  -1 -10   73.19    4.47
   1  -1 -10   66.36    4.03
  -1  -1  10   72.74    4.75
   1  -1 -10   72.26    4.53
   1   1 -10   58.43    4.21
  -1   1  10   48.64    4.02
   1   1 -10   59.82    3.85
   0  -1  10   -0.66    0.35
   0  -1 -10   -0.51    0.51
   0  -1 -10   -0.74    0.64
   0  -1 -10    0.13    0.64
   0  -1  10    0.41    0.65
   0   1  10    0.48    0.59
   0   1 -10    0.70    0.72
  -1  -1 -10   20.80    1.69
   1  -1  10   18.80    1.58
  -1  -1 -10   16.67    2.19
   1  -1  10   18.38    2.11
  -1  -1 -10   20.91    1.46
   1   1  10   19.27    1.82
  -1   1 -10   20.76    2.09
   2  -1  10   -2.19    1.10
   2  -1  10   -1.07    0.71
  -2  -1 -10   -0.05    0.59
   2  -1  10   -0.03    0.45
  -2   1 -10    0.51    0.85
   2   1  10   -1.09    0.69
  -2   1 -10    0.32    0.82
   3  -1  10   11.86    1.87
  -3  -1 -10   15.79    1.64
   3  -1  10   15.43    2.31
  -3  -1 -10   15.07    1.81
   3   1  10    1.80    1.01
   3   1  10    4.02    1.56
   4  -1  10    0.64    1.20
   4  -1  10   -0.71    0.80
   4  -1  10   -0.99    0.89
  -4  -1 -10   -0.71    0.63
  -4   1 -10   -0.67    1.06
   4   1  10    0.02    1.24
   5  -1  10    8.56    1.47
   5  -1  10    9.14    1.86
   5  -1  10    8.91    1.60
  -5   1 -10    3.86    1.32
  -5   1 -10    5.78    1.23
   5   1  10    4.37    1.35
   5  -2 -10    0.49    0.75
   5   2 -10   -0.26    1.30
  -5   2  10    0.23    1.35
   4  -2 -10  118.20    7.85
  -4   2  10   86.04    5.32
   4   2 -10   68.56    5.37
  -3  -2  10    0.47    0.69
   3  -2 -10   -0.30    0.72
  -3  -2  10   -0.02    0.68
   3  -2 -10   -0.48    0.89
   3   2 -10   -0.46    1.53
   2  -2 -10   49.49    3.00
   2  -2 -10   46.09    3.74
  -2  -2  10   50.44    3.53
   2  -2 -10   45.24    3.48
  -2  -2  10   46.87    3.68
   2   2 -10   37.76    2.36
   2   2 -10   26.26    3.16
   2   2 -10   33.76    3.52
   1  -2 -10   -0.12    0.67
   1  -2 -10   -0.67    0.68
  -1  -2  10   -0.45    0.90
  -1  -2  10   -0.21    0.40
   1  -2 -10    0.09    0.82
   1   2 -10   -1.89    1.56
   1   2 -10   -0.90    0.98
   1   2 -10   -0.13    1.28
   1   2 -10   -0.25    0.78
   0  -2 -10   19.54    2.58
   0  -2  10   15.19    1.98
   0  -2 -10   17.01    1.26
   0  -2  10   14.04    1.50
   0   2 -10   15.39    2.22
   0   2 -10   18.70    2.27
   0   2 -10   15.00    1.43
  -1  -2 -10    0.21    0.85
   1  -2  10   -0.09    0.39
  -1  -2 -10    0.05    0.60
  -1  -2 -10   -0.07    0.41
  -1  -2 -10   -0.96    0.71
  -1   2 -10    0.25    0.83
  -1   2 -10    2.08    1.11
   2  -2  10    1.80    0.87
  -2  -2 -10    0.54    0.85
  -2  -2 -10    1.19    0.78
   2  -2  10   -0.19    0.88
   2  -2  10    0.19    0.43
  -2   2 -10   -0.54    1.07
  -2   2 -10   -0.24    0.86
   3  -2  10    0.20    0.81
   3  -2  10    0.45    0.83
  -3  -2 -10    0.39    0.97
  -3  -2 -10    0.10    0.95
  -3   2 -10    1.29    1.10
  -4  -2 -10    0.29    1.28
   4  -2  10    1.55    0.76
   4  -2  10    1.61    0.89
  -4  -2 -10    1.14    1.15
  -4   2 -10    4.16    1.38
   6  -1 -11   -0.20    0.69
  -6  -1  11    0.13    0.71
  -6   1  11   -1.31    0.98
  -5  -1  11    7.93    1.56
  -5  -1  11    4.44    1.46
   5  -1 -11   10.07    1.32
   5   1 -11    2.96    1.20
  -5   1  11    6.07    1.63
   5   1 -11    4.36    1.35
  -5   1  11    4.37    1.55
  -4  -1  11   -1.03    1.14
  -4  -1  11   -1.73    1.14
  -4  -1  11   -0.51    0.56
   4  -1 -11    0.80    1.05
   4  -1 -11   -0.02    0.55
   4   1 -11   -2.34    1.44
  -4   1  11    1.01    1.57
   4   1 -11    1.00    1.23
   3  -1 -11   10.95    1.67
   3  -1 -11   10.83    2.38
  -3  -1  11    8.14    2.13
  -3  -1  11   13.93    1.98
   3  -1 -11   12.84    1.22
  -3   1  11    4.24    1.41
   3   1 -11    4.99    1.68
   3   1 -11    2.51    1.33
   3   1 -11    8.39    1.85
  -3   1  11    7.65    1.75
  -2  -1  11   -0.90    0.98
   2  -1 -11    1.48    0.82
  -2  -1  11   -0.11    1.33
   2  -1 -11    0.53    0.81
   2  -1 -11   -0.06    0.59
  -2  -1  11   -0.55    0.79
   2   1 -11   -0.02    0.89
  -2   1  11   -0.37    0.86
   2   1 -11   -0.79    0.90
   2   1 -11    2.04    1.35
  -2   1  11   -2.04    1.10
  -1  -1  11   25.62    1.80
   1  -1 -11   29.38    1.85
  -1  -1  11   24.59    2.24
   1  -1 -11   30.14    2.35
   1  -1 -11   26.80    2.69
   1  -1 -11   24.87    2.14
  -1  -1  11   24.46    2.13
   1   1 -11   25.30    2.57
   1   1 -11   21.62    2.36
   1   1 -11   23.71    1.82
  -1   1  11   26.57    2.49
   1   1 -11   26.91    2.24
   1   1 -11   24.65    2.73
   0  -1  11   -0.25    0.36
   0  -1 -11   -0.71    0.54
   0  -1 -11    0.22    0.65
   0  -1 -11   -1.56    0.57
   0  -1  11   -0.55    0.57
   0   1  11   -0.62    0.55
   0   1 -11   -0.54    0.57
   0   1 -11    0.24    0.88
   0   1 -11   -0.26    0.76
  -1  -1 -11   17.15    1.41
   1  -1  11   17.49    1.55
  -1  -1 -11   15.74    2.08
   1  -1  11   15.74    1.92
  -1  -1 -11   19.53    1.64
   1  -1  11   18.91    2.02
  -1   1 -11   15.54    1.67
  -1   1 -11   14.84    1.54
  -1   1 -11   17.23    1.95
   1   1  11   19.13    1.71
   2  -1  11   -0.02    0.84
   2  -1  11    0.15    0.44
   2  -1  11   -0.69    1.13
  -2  -1 -11   -0.53    0.58
   2   1  11    0.31    0.74
   2   1  11   -0.74    1.01
  -2   1 -11   -0.17    0.79
  -2   1 -11    0.37    0.84
  -3  -1 -11  204.83   14.60
   3  -1  11  226.83   11.47
   3  -1  11  213.72   13.09
  -3  -1 -11  238.80   12.75
   3   1  11  170.58   10.81
  -3   1 -11  187.35   10.55
   4  -1  11   -0.07    0.90
   4  -1  11   -0.14    0.78
  -4  -1 -11    0.38    0.71
   4   1  11   -0.47    1.16
   5  -1  11    2.94    0.77
   5  -1  11    2.65    0.83
   5  -1  11    1.08    1.13
   5   1  11    2.39    1.00
  -5   1 -11    2.03    1.10
   5  -2 -11    0.25    0.69
   5   2 -11    0.49    0.74
   5   2 -11    0.00    1.24
  -5   2  11    0.83    1.10
   4  -2 -11    0.06    0.87
   4   2 -11    1.57    1.53
  -4   2  11   -0.31    1.27
   3  -2 -11    0.16    0.83
   3  -2 -11   -0.91    0.57
  -3  -2  11   -0.15    0.69
   3  -2 -11   -0.67    0.83
   3   2 -11    0.65    0.88
   3   2 -11    1.78    1.56
   2  -2 -11   -0.30    0.66
   2  -2 -11   -0.71    0.82
   2  -2 -11    0.40    0.78
  -2  -2  11    0.34    0.90
   2   2 -11   -0.30    1.23
   2   2 -11   -0.28    0.84
   2   2 -11   -0.71    1.53
  -1  -2  11    0.26    1.02
   1  -2 -11    0.53    0.70
  -1  -2  11   -0.66    0.44
   1  -2 -11   -0.56    0.76
   1   2 -11   -0.22    1.15
   1   2 -11    0.54    0.83
   1   2 -11    1.63    1.31
   0  -2  11  132.96    8.36
   0  -2  11  121.21    6.09
   0  -2 -11  125.66    8.06
   0  -2 -11  122.39    6.72
   0   2 -11  128.02    7.81
   0   2 -11  125.45    6.33
   0   2 -11  124.81    8.55
   1  -2  11   -0.81    0.40
  -1  -2 -11    0.26    0.45
   1  -2  11    0.52    0.95
  -1  -2 -11   -1.51    0.82
  -1  -2 -11   -0.60    0.61
  -1   2 -11    0.97    1.08
  -1   2 -11    0.55    0.93
  -2  -2 -11   17.86    1.54
   2  -2  11   11.72    1.54
   2  -2  11   13.13    1.70
  -2  -2 -11   13.87    1.80
   2  -2  11   13.40    1.75
  -2   2 -11   14.66    2.05
  -3  -2 -11   -1.12    0.85
   3  -2  11    0.33    0.84
  -3  -2 -11    0.64    0.93
  -3  -2 -11    0.88    0.81
   3  -2  11    0.09    0.80
  -3   2 -11    0.78    1.05
  -4  -2 -11    6.60    1.24
   4  -2  11    5.84    0.95
   4  -2  11    4.88    0.93
  -4  -2 -11    6.91    1.43
  -4   2 -11    7.27    1.45
  -5  -1  12    6.32    1.64
   5  -1 -12    8.63    1.30
  -5  -1  12   11.06    1.59
  -5   1  12    6.04    1.54
   5   1 -12    4.46    1.21
   5   1 -12    6.21    1.40
   4  -1 -12    1.20    1.02
  -4  -1  12    0.28    1.17
  -4  -1  12   -0.63    1.34
   4  -1 -12    0.30    1.05
  -4   1  12    0.01    1.42
   4   1 -12    1.88    1.44
   4   1 -12   -0.11    1.27
   3  -1 -12  211.31   12.35
   3  -1 -12  206.20   12.24
  -3  -1  12  216.90   12.38
   3  -1 -12  206.37   13.01
  -3  -1  12  163.48   13.46
   3  -1 -12  203.15   12.31
   3   1 -12  108.63    6.67
  -3   1  12   98.16    7.13
  -3   1  12  112.52    6.60
   3   1 -12  107.04    6.66
   3   1 -12   80.66    7.10
  -2  -1  12   -0.23    0.39
  -2  -1  12   -0.12    0.83
   2  -1 -12   -0.68    0.79
   2  -1 -12    0.16    0.57
   2   1 -12   -0.74    0.97
  -2   1  12   -1.23    1.12
   2   1 -12   -0.78    0.64
  -2   1  12   -0.95    0.94
   2   1 -12    0.72    1.41
   2   1 -12    0.13    0.94
   1  -1 -12    1.26    0.83
  -1  -1  12    1.08    0.42
   1  -1 -12    1.52    0.64
  -1  -1  12    1.33    0.75
  -1  -1  12    1.65    0.85
   1  -1 -12    2.92    0.89
   1   1 -12    6.90    0.99
  -1   1  12    3.03    1.07
  -1   1  12    2.70    1.08
   1   1 -12    2.16    1.19
   1   1 -12    1.67    1.07
   0  -1  12   -0.39    0.35
   0  -1 -12   -0.21    0.61
   0  -1  12   -0.50    0.63
   0  -1 -12   -0.12    0.51
   0  -1  12   -1.16    0.79
   0   1 -12    0.41    0.82
   0   1  12   -0.85    0.57
   0   1 -12   -1.10    0.95
   0   1 -12   -0.20    0.62
   1  -1  12    0.65    0.74
   1  -1  12    0.27    0.89
  -1  -1 -12    1.88    0.70
  -1  -1 -12    0.58    0.55
   1  -1  12    0.48    0.39
  -1   1 -12    2.69    0.93
   1   1  12    0.76    0.89
  -1   1 -12    0.71    0.62
  -1   1 -12    1.07    0.91
   1   1  12    0.82    0.62
   2  -1  12   -1.06    1.05
  -2  -1 -12    0.12    0.69
   2  -1  12    0.13    0.43
  -2   1 -12    0.38    0.71
   2   1  12   -0.14    0.68
  -2   1 -12    0.46    0.84
   2   1  12   -0.75    0.89
  -2   1 -12   -0.14    0.83
   3  -1  12  197.26   10.09
   3  -1  12  185.45   11.52
  -3  -1 -12  200.54   12.89
  -3  -1 -12  193.68   11.25
  -3   1 -12  158.46    9.64
   3   1  12  178.94    9.94
  -3   1 -12  156.03    9.63
  -4  -1 -12   -0.07    0.68
   4  -1  12   -0.14    0.82
   4  -1  12    0.21    0.72
  -4   1 -12   -0.19    0.85
  -4   1 -12   -0.65    1.05
   4   1  12    0.21    1.00
   5  -1  12    4.87    0.77
   5  -1  12    4.61    0.76
   5  -1  12    3.53    1.31
  -5   1 -12    4.19    1.09
   5   1  12    5.58    1.15
   4  -2 -12    2.02    0.95
   4   2 -12    2.01    0.94
   4   2 -12    1.48    1.45
  -4   2  12    0.51    1.07
   3  -2 -12   -0.20    0.94
   3  -2 -12    0.49    0.83
   3  -2 -12   -0.07    0.61
  -3  -2  12   -0.24    0.66
   3   2 -12    1.83    1.47
   3   2 -12    0.97    0.89
   2  -2 -12   13.31    2.19
   2  -2 -12   13.89    1.54
   2  -2 -12   14.00    1.59
  -2  -2  12   11.82    1.71
   2   2 -12   16.75    2.33
   2   2 -12   17.61    1.72
   2   2 -12   16.25    2.52
   1  -2 -12   -1.15    0.70
  -1  -2  12    0.07    0.47
   1  -2 -12    0.53    0.76
  -1  -2  12    0.06    1.03
   1   2 -12   -0.54    1.09
   1   2 -12    1.35    1.28
   1   2 -12    0.52    0.80
   0  -2 -12  230.19   12.50
   0  -2  12  240.24   14.94
   0  -2 -12  239.48   14.23
   0  -2  12  239.76   11.01
   0   2 -12  234.74   15.30
   0   2 -12  241.98   11.57
   0   2 -12  239.37   14.00
  -1  -2 -12   -0.23    0.58
  -1  -2 -12    1.04    0.48
  -1  -2 -12   -1.09    0.81
   1  -2  12   -0.31    0.40
   1  -2  12   -0.01    0.82
  -1   2 -12    1.21    1.08
   2  -2  12   22.19    1.99
   2  -2  12   19.93    1.71
  -2  -2 -12   21.29    1.69
   2  -2  12   18.09    2.00
  -2  -2 -12   21.26    1.98
  -2   2 -12   19.02    2.07
  -3  -2 -12    0.59    0.83
   3  -2  12    0.14    0.73
  -3  -2 -12    0.82    0.81
   3  -2  12   -0.06    0.75
  -3  -2 -12    1.60    0.77
  -3   2 -12   -0.74    0.94
   4  -2  12    0.50    0.61
   4  -2  12    0.60    0.48
  -4  -2 -12    2.96    0.89
  -4   2 -12    1.01    1.00
  -5  -1  13    0.60    1.03
   5  -1 -13    0.34    0.80
  -5  -1  13    1.89    0.97
   5   1 -13    0.88    0.64
  -5   1  13    1.27    1.19
   5   1 -13   -0.23    0.97
   4  -1 -13   -0.53    0.92
  -4  -1  13    0.06    1.31
   4  -1 -13    0.59    0.98
  -4  -1  13   -0.61    1.09
   4   1 -13    0.49    0.77
  -4   1  13    0.30    1.35
   4   1 -13    0.37    1.15
   4   1 -13   -0.48    1.29
  -3  -1  13  210.05   12.30
   3  -1 -13  206.73   12.34
   3  -1 -13  196.47   12.99
  -3  -1  13  202.71   13.61
   3  -1 -13  195.81   12.11
   3   1 -13  158.54    7.86
   3   1 -13  170.49    9.53
  -3   1  13  140.80    9.53
   3   1 -13  160.64    9.87
   3   1 -13  159.59    9.68
   2  -1 -13   -0.81    0.52
   2  -1 -13    0.72    0.91
  -2  -1  13   -0.16    0.34
  -2  -1  13   -0.57    0.81
   2   1 -13   -0.97    1.02
  -2   1  13    0.23    1.11
  -2   1  13   -0.17    1.05
   2   1 -13    0.31    0.91
   2   1 -13   -0.23    0.77
   2   1 -13    0.33    1.14
   2   1 -13    0.24    0.65
  -1  -1  13   10.26    1.40
   1  -1 -13    8.35    1.85
   1  -1 -13    9.84    1.44
  -1  -1  13   10.29    1.20
   1  -1 -13   10.51    1.54
   1   1 -13   10.21    2.00
  -1   1  13   12.37    1.87
   1   1 -13   12.80    1.94
  -1   1  13   10.78    1.74
   1   1 -13    8.94    2.00
   1   1 -13   12.26    1.38
   0  -1  13   -0.17    0.84
   0  -1 -13   -0.32    0.46
   0  -1 -13   -0.85    0.62
   0  -1  13   -0.70    0.32
   0   1 -13   -0.09    0.56
   0   1  13   -0.43    0.88
   0   1 -13   -0.23    0.81
   0   1  13   -0.53    0.63
   0   1 -13   -0.69    0.98
   1  -1  13    1.89    0.44
  -1  -1 -13    1.40    0.61
  -1  -1 -13    3.01    0.76
   1  -1  13    1.93    0.96
  -1   1 -13    1.76    0.68
   1   1  13    2.92    0.97
  -1   1 -13    1.40    0.97
   1   1  13    1.88    0.80
  -1   1 -13    2.58    0.97
   2  -1  13   -0.35    0.96
  -2  -1 -13    0.11    0.75
   2  -1  13   -0.06    0.37
  -2   1 -13   -0.39    0.85
   2   1  13    0.02    0.85
   2   1  13   -0.32    0.63
  -2   1 -13   -0.24    0.72
   3  -1  13    0.06    0.89
  -3  -1 -13    1.34    0.77
   3  -1  13    0.38    0.72
   3   1  13    0.27    1.00
  -3   1 -13   -0.39    0.83
   4  -1  13    1.17    0.73
   4  -1  13    0.78    0.65
  -4   1 -13   -0.59    0.94
   4   1  13   -0.30    0.79
   4  -2 -13    6.47    1.19
   4   2 -13    6.84    1.43
   4   2 -13    9.65    1.97
  -4   2  13    5.00    1.18
   4   2 -13    7.17    1.02
   3  -2 -13   -0.35    0.82
  -3  -2  13    0.28    0.57
   3  -2 -13   -0.31    0.57
   3   2 -13    1.51    1.28
   3   2 -13    0.89    0.84
   3   2 -13   -0.72    0.61
   3   2 -13    0.87    1.42
   2  -2 -13    1.88    0.75
  -2  -2  13    2.48    0.98
   2  -2 -13    4.39    0.97
   2   2 -13    5.04    1.04
   2   2 -13    3.92    1.43
   1  -2 -13   -0.75    0.66
   1  -2 -13   -0.26    0.69
  -1  -2  13    0.20    0.43
  -1  -2  13    0.13    0.94
   1   2 -13    0.12    0.77
   1   2 -13    0.71    1.23
   0  -2  13   56.95    4.12
   0  -2 -13   54.58    3.28
   0  -2 -13   55.05    4.16
   0  -2  13   58.85    3.10
   0   2 -13   55.99    4.02
  -1  -2 -13    0.07    0.55
   1  -2  13    0.33    0.84
  -1  -2 -13   -0.12    0.47
   1  -2  13    0.11    0.38
  -1  -2 -13   -0.96    0.74
  -1   2 -13    0.31    1.01
   2  -2  13   -0.19    0.81
  -2  -2 -13    0.32    0.64
  -2  -2 -13    0.76    0.76
   2  -2  13   -0.06    0.38
  -2   2 -13    0.04    0.92
  -3  -2 -13    0.70    0.79
   3  -2  13   -0.69    0.66
  -3  -2 -13    0.17    0.69
   3  -2  13   -0.10    0.64
  -3   2 -13   -0.26    1.00
  -5  -1  14   -0.03    0.77
   5   1 -14    0.53    0.55
  -5   1  14    1.27    1.02
   4  -1 -14    1.34    0.96
  -4  -1  14    0.66    1.14
   4  -1 -14   -0.89    0.87
   4   1 -14    0.78    0.78
  -4   1  14    1.65    1.26
   4   1 -14   -0.37    1.01
   3  -1 -14    0.54    0.59
   3  -1 -14    0.94    0.97
  -3  -1  14    0.44    1.34
   3   1 -14   -0.17    0.52
  -3   1  14    0.15    1.20
   3   1 -14    1.05    1.22
   3   1 -14    1.27    1.07
   3   1 -14    1.53    0.85
  -2  -1  14    0.34    0.36
  -2  -1  14    0.47    0.87
   2  -1 -14    0.35    0.56
   2  -1 -14   -1.20    0.88
   2   1 -14    1.35    1.22
   2   1 -14    0.16    0.90
   2   1 -14    0.02    0.76
   2   1 -14    0.07    0.59
  -2   1  14    0.01    1.01
  -2   1  14   -1.05    0.99
   1  -1 -14   24.45    2.37
  -1  -1  14   21.99    1.61
  -1  -1  14   20.20    2.01
   1  -1 -14   23.56    2.09
   1   1 -14   21.01    2.25
  -1   1  14   19.21    2.16
  -1   1  14   19.70    2.00
   1   1 -14   20.52    1.62
   1   1 -14   17.44    2.28
   0  -1  14   -1.16    0.80
   0  -1 -14    0.05    0.47
   0  -1 -14   -0.03    0.69
   0  -1  14    0.14    0.37
   0   1  14    0.19    0.71
   0   1 -14   -0.04    0.55
   0   1  14   -0.05    0.93
   0   1 -14   -0.21    0.97
  -1  -1 -14   57.85    4.00
  -1  -1 -14   57.54    3.70
   1  -1  14   56.80    3.02
   1  -1  14   55.10    3.78
  -1   1 -14   45.90    3.45
   1   1  14   45.65    3.68
   1   1  14   56.62    3.53
  -1   1 -14   54.23    3.73
  -2  -1 -14    0.30    0.75
   2  -1  14   -0.33    0.80
   2  -1  14   -0.09    0.35
   2  -1  14   -0.29    0.66
  -2   1 -14   -0.78    0.69
   2   1  14   -1.13    0.77
   3  -1  14   41.59    2.61
  -3  -1 -14   42.43    2.98
  -3   1 -14   42.02    3.29
   3   1  14   36.93    2.80
  -3   1 -14   36.21    2.82
   4  -1  14    0.40    0.58
   4  -1  14    0.24    1.13
   4  -1  14    0.64    0.57
   4   1  14    0.71    0.71
  -4   1 -14   -0.12    0.83
   4   2 -14   -0.25    0.91
  -4   2  14    0.32    0.78
   4   2 -14    0.61    0.69
   3  -2 -14   -0.06    0.49
   3   2 -14    0.12    1.11
   3   2 -14    0.55    0.58
   3   2 -14    0.75    0.77
   2  -2 -14    4.08    0.88
   2  -2 -14    1.56    0.67
  -2  -2  14    2.51    0.85
   2   2 -14    2.52    0.74
   2   2 -14    2.77    1.21
   2   2 -14    3.71    0.90
   1  -2 -14   -0.46    0.68
  -1  -2  14   -0.46    0.37
  -1  -2  14   -0.43    0.82
   1  -2 -14   -0.44    0.60
   1   2 -14   -0.09    1.06
   1   2 -14   -0.38    0.74
   0  -2 -14   26.93    1.78
   0  -2  14   23.36    2.22
   0  -2  14   26.59    1.78
   0  -2 -14   24.35    2.38
   0   2 -14   24.16    2.33
  -1  -2 -14   -0.96    0.47
   1  -2  14    0.03    0.33
  -1  -2 -14   -0.01    0.48
   1  -2  14   -0.14    0.75
  -1   2 -14    0.32    1.00
  -2  -2 -14   41.43    2.86
   2  -2  14   43.37    2.28
   2  -2  14   38.70    3.00
  -2  -2 -14   39.32    2.53
  -2   2 -14   42.58    3.13
   3  -2  14    0.19    0.52
   3  -2  14    0.31    0.58
  -3  -2 -14    0.46    0.61
  -3  -2 -14    0.95    0.75
  -3   2 -14   -1.82    0.91
  -4  -1  15   -0.20    0.85
   4  -1 -15   -0.15    0.86
   4   1 -15   -0.53    0.63
  -4   1  15    0.61    1.06
   4   1 -15   -0.25    0.89
  -3  -1  15   26.32    2.84
   3  -1 -15   30.53    2.59
   3  -1 -15   32.99    2.55
   3   1 -15   30.90    2.06
  -3   1  15   30.01    2.66
   3   1 -15   30.59    2.51
   3   1 -15   29.29    2.59
   2  -1 -15   -0.30    0.51
   2  -1 -15   -0.35    0.86
  -2  -1  15    0.13    0.33
  -2   1  15    1.37    1.03
   2   1 -15   -0.15    0.88
   2   1 -15   -0.42    0.73
   2   1 -15   -0.33    0.55
   2   1 -15    0.41    1.07
   1  -1 -15   56.18    3.86
  -1  -1  15   53.03    2.82
  -1  -1  15   48.62    3.54
   1   1 -15   53.12    2.97
  -1   1  15   54.54    3.71
   1   1 -15   53.54    3.87
   1   1 -15   52.05    3.73
   0  -1  15   -0.23    0.82
   0  -1  15    0.29    0.37
   0  -1 -15   -0.54    0.67
   0  -1 -15   -0.18    0.48
   0   1 -15   -0.45    0.56
   0   1  15   -0.23    0.92
   0   1 -15   -0.58    0.97
  -1  -1 -15  152.09    9.52
  -1  -1 -15  165.32    9.25
   1  -1  15  165.47    7.41
   1  -1  15  149.87    9.29
   1   1  15  163.52    9.62
  -1   1 -15  162.25    9.87
   2  -1  15    1.80    0.91
   2  -1  15    0.21    0.31
  -2  -1 -15    0.76    0.81
   2  -1  15    0.03    0.63
   2   1  15   -0.50    0.79
  -2   1 -15   -0.23    0.83
   3  -1  15    1.53    0.64
  -3  -1 -15    1.74    0.91
  -3   1 -15    1.03    0.87
   3   1  15    0.93    0.75
   4  -1  15    0.90    0.52
   4  -1  15   -0.71    0.46
  -4   1 -15    0.68    0.81
   4   1  15    0.70    0.57
   3  -2 -15    0.34    0.40
   3   2 -15   -0.19    0.49
   3   2 -15    0.01    0.97
   3   2 -15    0.09    0.67
  -3   2  15   -0.91    0.72
  -2  -2  15   81.56    5.64
   2  -2 -15   94.41    5.66
   2  -2 -15   92.68    5.00
   2   2 -15   98.80    4.85
   2   2 -15   91.90    6.05
   2   2 -15   94.46    5.91
  -1  -2  15   -0.17    0.71
  -1  -2  15   -0.05    0.34
   1  -2 -15   -0.99    0.49
   1  -2 -15   -0.04    0.71
   1   2 -15    1.44    1.00
   1   2 -15   -0.35    0.65
   0  -2  15    8.84    1.13
   0  -2 -15   10.42    1.12
   0  -2 -15   10.31    1.54
   0  -2  15    9.84    1.30
   0   2 -15   10.20    1.54
   0   2 -15    5.31    0.98
  -1  -2 -15   -0.09    0.43
   1  -2  15    0.10    0.30
  -1  -2 -15   -0.07    0.60
   1  -2  15   -1.22    0.61
  -1   2 -15    0.20    0.98
   2  -2  15   17.94    1.21
  -2  -2 -15   16.33    1.46
   2  -2  15   13.67    1.44
  -2  -2 -15   15.41    1.30
  -2   2 -15   17.57    1.84
  -4  -1  16   -0.61    0.70
   4   1 -16    0.02    0.51
  -4   1  16   -0.72    0.89
   4   1 -16    0.46    0.84
   3  -1 -16    1.28    0.53
  -3  -1  16    0.85    0.89
   3  -1 -16    2.07    0.83
   3   1 -16    1.96    0.93
   3   1 -16    0.79    0.71
  -3   1  16    1.07    1.02
   3   1 -16   -0.22    0.96
   3   1 -16    0.54    0.57
   2  -1 -16   -0.70    0.85
  -2  -1  16   -0.04    0.91
  -2  -1  16    0.45    0.32
   2  -1 -16   -0.18    0.55
   2   1 -16    0.33    0.72
   2   1 -16    0.40    0.58
  -2   1  16    0.70    0.92
  -1  -1  16   11.85    1.17
  -1  -1  16    8.59    1.53
   1  -1 -16   10.49    1.84
   1   1 -16   13.32    1.99
  -1   1  16   12.33    1.80
   0  -1  16    0.32    0.37
   0  -1 -16    0.69    0.70
   0  -1  16   -0.43    0.76
   0  -1 -16   -0.43    0.50
   0   1 -16   -0.22    0.87
   0   1  16    0.65    0.94
   0   1 -16   -0.41    0.54
  -1  -1 -16    6.42    1.09
   1  -1  16    7.62    1.36
  -1  -1 -16    7.20    1.48
   1   1  16    4.69    1.15
  -1   1 -16    6.21    1.31
   2  -1  16    0.44    0.61
  -2  -1 -16   -0.28    0.77
   2  -1  16    0.07    0.30
  -2   1 -16    0.53    0.81
   2   1  16   -0.34    0.74
   3  -1  16   -0.53    0.52
   3   1  16   -0.03    0.66
   3   1  16    0.87    0.51
  -3   1 -16    0.85    0.78
   2  -2 -16   47.73    3.24
   2   2 -16   51.00    3.54
   2   2 -16   51.22    3.45
   1  -2 -16   -0.71    0.42
   1  -2 -16   -0.09    0.69
  -1  -2  16   -0.22    0.59
  -1  -2  16    0.27    0.28
   1   2 -16   -0.11    0.59
   1   2 -16   -0.53    0.85
   0  -2  16    7.61    0.98
   0  -2 -16    7.79    1.28
   0  -2 -16    9.16    1.07
   0  -2  16    7.16    1.08
   0   2 -16    9.63    1.61
   0   2 -16    6.78    1.34
   1  -2  16    0.28    0.29
   1  -2  16    0.80    0.63
  -1  -2 -16   -0.01    0.34
  -1  -2 -16    0.31    0.61
  -1   2 -16    0.13    0.84
   2  -2  16    4.95    0.79
   2  -2  16    5.01    0.74
  -2   2 -16    6.20    1.27
   3  -1 -17   -0.81    0.46
  -3  -1  17   -0.78    0.67
  -3   1  17   -0.12    0.87
   3   1 -17    0.66    0.85
   3   1 -17    0.01    0.51
  -2  -1  17   -0.68    0.78
  -2  -1  17    0.47    0.29
   2  -1 -17    0.33    0.58
  -2   1  17   -0.23    0.89
   2   1 -17   -0.17    0.54
   2   1 -17   -0.43    0.93
   1  -1 -17    2.12    0.69
  -1  -1  17    2.44    0.43
  -1   1  17    5.00    1.07
   1   1 -17    3.39    1.08
   1   1 -17    3.00    0.71
   0  -1 -17   -0.64    0.49
   0  -1  17   -0.11    0.32
   0  -1 -17   -0.17    0.69
   0   1 -17   -0.45    0.83
   0   1 -17   -0.01    0.57
   0   1  17   -0.51    0.87
  -1  -1 -17   93.18    5.50
  -1  -1 -17   82.26    5.70
   1  -1  17   94.83    4.40
   1   1  17   95.45    5.49
   1   1  17   88.68    4.28
  -1   1 -17   81.75    5.93
   2  -1  17   -0.62    0.57
   2  -1  17   -0.34    0.29
   2   1  17   -0.01    0.71
  -2   1 -17   -0.42    0.71
   3  -1  17   31.23    1.91
   3   1  17   24.70    1.87
   2  -2 -17   14.72    1.47
   2   2 -17   11.76    1.50
   2   2 -17    6.31    1.20
  -1  -2  17   -0.05    0.24
   1  -2 -17   -0.12    0.41
   1   2 -17   -0.09    0.50
   1   2 -17    0.91    0.78
   0  -2  17   13.51    1.01
   0  -2  17    9.99    1.04
   0  -2 -17   14.92    1.20
   0  -2 -17   11.01    1.29
   0   2 -17    9.48    1.29
   1  -2  17    0.08    0.26
  -3   1  18   23.34    1.89
   3   1 -18   22.26    1.93
   2  -1 -18    0.57    0.53
  -2  -1  18   -0.15    0.26
  -2  -1  18    0.94    0.80
   2   1 -18   -0.52    0.76
   2   1 -18    0.14    0.53
  -2   1  18    0.47    0.77
  -1  -1  18   53.82    2.80
   1  -1 -18   56.06    3.84
   1   1 -18   52.86    3.59
  -1   1  18   52.09    3.34
   1   1 -18   46.29    3.67
   0  -1  18   -0.03    0.32
   0  -1 -18   -0.31    0.47
   0   1  18    0.20    0.33
   0   1 -18   -0.76    0.73
   0   1  18   -0.15    0.81
   0   1 -18   -0.40    0.51
   1  -1  18   62.25    3.16
   1  -1  18   63.57    3.46
   1   1  18   48.23    2.49
   1   1  18   52.58    3.26
  -1   1 -18   46.00    3.48
   2  -1  18    0.05    0.25
   2  -1  18    0.29    0.53
  -2   1 -18    0.07    0.75
   2   1  18   -0.02    0.62
  -1  -1  19   37.52    2.04
   1  -1 -19   39.17    2.86
  -1   1  19   37.99    2.01
   1   1 -19   32.18    2.67
   1   1 -19   39.71    2.70
  -1   1  19   34.82    2.49
   0  -1  19    0.08    0.28
   0  -1 -19    0.01    0.42
   0   1 -19    0.77    0.75
   0   1  19   -0.22    0.27
   0   1 -19    0.52    0.45
   0   1  19   -0.68    0.67
   1  -1  19    0.24    0.28
   1  -1  19   -0.58    0.50
   1   1  19    0.96    0.68
;
_shelx_hkl_checksum              37643
_olex2_submission_special_instructions 'No special instructions were received'
#END Tags that were not found in dictionaries
loop_
_space_group_symop_operation_xyz
'x, y, z'
'-x, y, -z'
'x+1/2, y+1/2, z'
'-x+1/2, y+1/2, -z'
'-x, -y, -z'
'x, -y, z'
'-x+1/2, -y+1/2, -z'
'x+1/2, -y+1/2, z'
loop_
_atom_site_label
_atom_site_type_symbol
_atom_site_fract_x
_atom_site_fract_y
_atom_site_fract_z
_atom_site_U_iso_or_equiv
_atom_site_adp_type
_atom_site_occupancy
_atom_site_site_symmetry_order
_atom_site_calc_flag
_atom_site_refinement_flags_posn
_atom_site_refinement_flags_adp
_atom_site_refinement_flags_occupancy
Cr1 Cr 0.5296(13) 0.5000 0.6691(5) 0.009(3) Uani 1 2 d S T P
Cr2 Cr 1.0000 0.0000 0.5000 0.010(8) Uani 0.45(6) 4 d S T P
Se1 Se 0.8486(8) 0.5000 0.5845(3) 0.007(2) Uani 1 2 d S T P
Se2 Se 0.7091(9) 0.0000 0.7510(3) 0.010(2) Uani 1 2 d S T P
loop_
_atom_site_aniso_label
_atom_site_aniso_U_11
_atom_site_aniso_U_22
_atom_site_aniso_U_33
_atom_site_aniso_U_23
_atom_site_aniso_U_13
_atom_site_aniso_U_12
Cr1 0.007(5) 0.005(5) 0.014(5) 0.000 -0.002(4) 0.000
Cr2 0.002(14) 0.008(13) 0.022(13) 0.000 -0.001(10) 0.000
Se1 0.003(3) 0.004(4) 0.014(3) 0.000 -0.001(2) 0.000
Se2 0.009(3) 0.007(4) 0.013(3) 0.000 -0.001(2) 0.000
loop_
_atom_type_symbol
_atom_type_description
_atom_type_scat_dispersion_real
_atom_type_scat_dispersion_imag
_atom_type_scat_source
Cr Cr -0.1635 2.4439 'International Tables Vol C Tables 4.2.6.8 and 6.1.1.4'
Se Se -0.7943 1.1372 'International Tables Vol C Tables 4.2.6.8 and 6.1.1.4'
loop_
_geom_angle_atom_site_label_1
_geom_angle_atom_site_label_2
_geom_angle_atom_site_label_3
_geom_angle
_geom_angle_site_symmetry_1
_geom_angle_site_symmetry_3
Se1 Cr1 Se1 90.2(3) . 3_445
Se2 Cr1 Se1 179.1(4) 3_455 .
Se2 Cr1 Se1 179.2(3) 1_565 3_445
Se2 Cr1 Se1 89.3(3) 1_565 .
Se2 Cr1 Se1 89.3(3) . .
Se2 Cr1 Se1 88.87(13) . 3_445
Se2 Cr1 Se1 89.1(3) 3_455 3_445
Se2 Cr1 Se2 91.3(3) 1_565 3_455
Se2 Cr1 Se2 91.3(3) . 3_455
Se2 Cr1 Se2 91.8(3) 1_565 .
Se1 Cr2 Se1 180.0 . 5_756
Se1 Cr2 Se1 90.20(15) 5_766 7_656
Se1 Cr2 Se1 90.20(15) 5_756 7_656
Se1 Cr2 Se1 89.42(17) 5_756 1_545
Se1 Cr2 Se1 90.58(17) 5_756 5_766
Se1 Cr2 Se1 89.80(15) . 7_656
Se1 Cr2 Se1 90.58(17) . 1_545
Se1 Cr2 Se1 89.42(17) . 5_766
Se1 Cr2 Se1 180.0 5_766 1_545
Se1 Cr2 Se1 89.80(15) 1_545 7_656
Cr1 Se1 Cr1 90.2(3) . 3
Cr1 Se1 Cr1 90.5(3) 3 3_545
Cr1 Se1 Cr1 90.2(3) . 3_545
Cr1 Se1 Cr2 131.52(12) . .
Cr1 Se1 Cr2 70.1(2) . 3_455
Cr1 Se1 Cr2 131.52(12) . 1_565
Cr2 Se1 Cr1 131.9(3) . 3
Cr2 Se1 Cr1 70.08(18) 1_565 3
Cr2 Se1 Cr1 131.57(18) 3_455 3
Cr2 Se1 Cr1 131.9(3) 1_565 3_545
Cr2 Se1 Cr1 131.57(18) 3_455 3_545
Cr2 Se1 Cr1 70.08(18) . 3_545
Cr2 Se1 Cr2 90.20(15) 1_565 3_455
Cr2 Se1 Cr2 90.20(15) . 3_455
Cr2 Se1 Cr2 90.58(17) . 1_565
Cr1 Se2 Cr1 91.8(3) . 1_545
Cr1 Se2 Cr1 91.3(3) . 3_545
Cr1 Se2 Cr1 91.3(3) 1_545 3_545
loop_
_geom_bond_atom_site_label_1
_geom_bond_atom_site_label_2
_geom_bond_distance
_geom_bond_site_symmetry_2
Cr1 Se1 2.530(10) .
Cr1 Se1 2.534(7) 3_445
Cr1 Se2 2.508(9) 3_455
Cr1 Se2 2.505(7) 1_565
Cr1 Se2 2.505(7) .
Cr2 Se1 2.531(4) 1_545
Cr2 Se1 2.531(4) .
Cr2 Se1 2.531(4) 5_766
Cr2 Se1 2.532(5) 7_656
Cr2 Se1 2.531(4) 5_756
Se1 Cr1 2.534(7) 3_545
Se1 Cr1 2.534(7) 3
Se1 Cr2 2.531(4) 1_565
Se1 Cr2 2.532(5) 3_455
Se2 Cr1 2.505(7) 1_545
Se2 Cr1 2.508(9) 3_545
