#------------------------------------------------------------------------------
#$Date: 2016-03-24 00:12:42 +0200 (Thu, 24 Mar 2016) $
#$Revision: 179527 $
#$URL: svn://www.crystallography.net/cod/cif/4/34/24/4342498.cif $
#------------------------------------------------------------------------------
#
# This file is available in the Crystallography Open Database (COD),
# http://www.crystallography.net/
#
# All data on this site have been placed in the public domain by the
# contributors.
#
data_4342498
loop_
_publ_author_name
'Clarke, Samantha M.'
'Freedman, Danna E.'
_publ_section_title
;
 (BiSe)1.23CrSe2 and (BiSe)1.22(Cr1.2Se2)2: Magnetic Anisotropy in the
 First Structurally Characterized Bi-Se-Cr Ternary Compounds.
;
_journal_issue                   6
_journal_name_full               'Inorganic chemistry'
_journal_page_first              2765
_journal_page_last               2771
_journal_paper_doi               10.1021/ic5029178
_journal_volume                  54
_journal_year                    2015
_chemical_formula_moiety         '0.5(Cr2 Se4)'
_chemical_formula_sum            'Cr Se2'
_chemical_formula_weight         209.92
_chemical_name_systematic        CrSe2
_space_group_crystal_system      monoclinic
_space_group_IT_number           12
_space_group_name_Hall           '-C 2y'
_space_group_name_H-M_alt        'C 1 2/m 1'
_symmetry_space_group_name_Hall  '-C 2y'
_symmetry_space_group_name_H-M   'C 1 2/m 1'
_atom_sites_solution_primary     direct
_audit_creation_date             2014-10-28
_audit_creation_method
;
Olex2 1.2
(compiled 2014.09.19 svn.r3010 for OlexSys, GUI svn.r4874)
;
_cell_angle_alpha                90
_cell_angle_beta                 95.218(15)
_cell_angle_gamma                90
_cell_formula_units_Z            2
_cell_length_a                   6.1705(11)
_cell_length_b                   3.6053(7)
_cell_length_c                   11.472(2)
_cell_measurement_reflns_used    405
_cell_measurement_temperature    250.0
_cell_measurement_theta_max      25.26
_cell_measurement_theta_min      5.35
_cell_volume                     254.15(8)
_computing_molecular_graphics    'Olex2 (Dolomanov et al., 2009)'
_computing_publication_material  'Olex2 (Dolomanov et al., 2009)'
_computing_structure_refinement  'XL (Sheldrick, 2008)'
_computing_structure_solution    'XS (Sheldrick, 2008)'
_diffrn_ambient_temperature      250.0
_diffrn_detector                 'Bruker APEX2 area detector'
_diffrn_detector_area_resol_mean 7.9
_diffrn_detector_type            'CCD area detector'
_diffrn_measured_fraction_theta_full 0.556
_diffrn_measured_fraction_theta_max 0.559
_diffrn_measurement_device       'three-circle diffractometer'
_diffrn_measurement_device_type  'Bruker APEX-II CCD'
_diffrn_measurement_method       '\w and \f scans'
_diffrn_radiation_monochromator  'mirror optics'
_diffrn_radiation_probe          x-ray
_diffrn_radiation_type           MoK\a
_diffrn_radiation_wavelength     0.71073
_diffrn_reflns_av_R_equivalents  0.1177
_diffrn_reflns_av_unetI/netI     0.1148
_diffrn_reflns_Laue_measured_fraction_full 0.556
_diffrn_reflns_Laue_measured_fraction_max 0.559
_diffrn_reflns_limit_h_max       7
_diffrn_reflns_limit_h_min       -7
_diffrn_reflns_limit_k_max       4
_diffrn_reflns_limit_k_min       -4
_diffrn_reflns_limit_l_max       14
_diffrn_reflns_limit_l_min       -14
_diffrn_reflns_number            955
_diffrn_reflns_point_group_measured_fraction_full 0.556
_diffrn_reflns_point_group_measured_fraction_max 0.559
_diffrn_reflns_theta_full        26.000
_diffrn_reflns_theta_max         28.237
_diffrn_reflns_theta_min         6.562
_diffrn_source                   'microfocus sealed X-ray tube'
_diffrn_source_type              'Incoatec I\ms'
_diffrn_standards_number         0
_exptl_absorpt_coefficient_mu    16.368
_exptl_absorpt_correction_T_max  0.7457
_exptl_absorpt_correction_T_min  0.3388
_exptl_absorpt_correction_type   multi-scan
_exptl_crystal_colour            'metallic grayish'
_exptl_crystal_colour_lustre     metallic
_exptl_crystal_colour_modifier   grayish
_exptl_crystal_density_diffrn    2.743
_exptl_crystal_F_000             184
_exptl_crystal_preparation       'High temperature solid state reaction'
_exptl_crystal_recrystallization_method 'Salt flux'
_exptl_crystal_size_max          0.05
_exptl_crystal_size_mid          0.05
_exptl_crystal_size_min          0.02
_refine_diff_density_max         6.508
_refine_diff_density_min         -4.926
_refine_diff_density_rms         0.830
_refine_ls_extinction_method     none
_refine_ls_goodness_of_fit_ref   1.447
_refine_ls_hydrogen_treatment    undef
_refine_ls_matrix_type           full
_refine_ls_number_parameters     11
_refine_ls_number_reflns         204
_refine_ls_number_restraints     0
_refine_ls_restrained_S_all      1.447
_refine_ls_R_factor_all          0.1880
_refine_ls_R_factor_gt           0.1398
_refine_ls_shift/su_max          0.000
_refine_ls_shift/su_mean         0.000
_refine_ls_structure_factor_coef Fsqd
_refine_ls_weighting_details
'w=1/[\s^2^(Fo^2^)+(0.2000P)^2^] where P=(Fo^2^+2Fc^2^)/3'
_refine_ls_weighting_scheme      calc
_refine_ls_wR_factor_gt          0.3631
_refine_ls_wR_factor_ref         0.3917
_reflns_Friedel_coverage         0.000
_reflns_number_gt                133
_reflns_number_total             204
_reflns_threshold_expression     'I > 2\s(I)'
_cod_data_source_file            ic5029178_si_002.cif
_cod_data_source_block           c2m
_cod_depositor_comments
'Adding full bibliography for 4342497--4342502.cif.'
_cod_original_cell_volume        254.16(8)
_cod_database_code               4342498
#BEGIN Tags that were not found in dictionaries:
_shelxl_version_number           2013-3
_shelx_space_group_comment
;
The symmetry employed for this shelxl refinement is uniquely defined
by the following loop, which should always be used as a source of
symmetry information in preference to the above space-group names.
They are only intended as comments.
;
_olex2_refinement_description
;
;
_shelx_res_file
;
TITL c2m in C2/m #12
CELL 0.71073 6.1705 3.6053 11.4723 90 95.218 90
ZERR 2 0.0011 0.0007 0.0022 0 0.0152 0
LATT 7
SYMM -X,+Y,-Z

SFAC Cr Se
UNIT 2 4

L.S. 20
PLAN  4
TEMP -23.15
REM reset to C2/m #12
BOND
MORE -1
fmap 2 53
acta 52
REM <HKL>C:/Users/Samantha/Documents/XRD/smc64/work/crse2_2/c2m/h0l.hkl</HKL>

WGHT    0.200000
FVAR       0.15715
SE1   2    0.814173    0.500000    0.876012    10.50000    0.00665    0.01302 =
         0.03237    0.00000    0.00583    0.00000
CR1   1    0.500000    0.500000    1.000000    10.25000    0.00416    0.01894 =
         0.03233    0.00000    0.00370    0.00000
HKLF 4

REM  c2m in C2/m #12
REM R1 =  0.1398 for     133 Fo > 4sig(Fo)  and  0.1880 for all     204 data
REM     11 parameters refined using      0 restraints

END

WGHT      0.2000      0.0000

REM Highest difference peak  6.508,  deepest hole -4.926,  1-sigma level  0.830
Q1    1   0.6309  0.0000  0.6788  10.50000  0.05    6.51
Q2    1   0.4521  0.5000  0.6958  10.50000  0.05    5.89
Q3    1   0.5238  0.7101  0.6342  11.00000  0.05    2.73
Q4    1   0.8034  0.5000  0.8200  10.50000  0.05    2.50
;
_shelx_res_checksum              64422
_shelx_hkl_file
;
   1  -1   0   -2.89    3.10
   1  -1   0   -0.01    2.90
   1  -1   0   -4.61    3.88
   1   1   0   -3.95    2.62
  -1   1   0   -2.38    3.56
  -1   1   0    3.36    3.33
   3  -1   0  612.65   23.80
   3  -1   0  617.43   29.71
  -3   1   0  617.37   27.23
   5  -1   0   23.65    8.88
   5   1   0   20.56   12.12
  -5   1   0   34.95    6.85
   7  -1   0   33.02   14.64
   7   1   0    3.83   15.76
   0  -2   0  368.72   15.78
   0  -2   0  342.15   18.87
   0  -2   0  373.43   15.40
   0   2   0  359.21   17.83
   0   2   0  357.85   16.14
   0   2   0  384.18   16.02
  -2  -2   0   33.62    5.90
   2  -2   0   34.23    6.10
   2  -2   0   40.59    6.91
   2  -2   0   26.22    6.78
   2   2   0   28.70    4.91
  -2   2   0   25.76    6.72
  -2   2   0   39.34    7.48
   4  -2   0    8.10    9.22
   4  -2   0    3.40    6.26
  -4   2   0    1.94    7.11
   6  -2   0   74.44   11.97
   6  -2   0  102.16   21.59
  -6   2   0   68.81   13.59
   0  -4   0  123.49   19.38
   0  -4   0   86.57   12.08
   0   4   0   59.77   11.55
   2  -4   0   24.72   14.03
   2  -4   0   15.82    7.71
   2   4   0   13.12    9.36
  -2   4   0   13.02    8.52
   4  -4   0    1.18   12.79
   4   4   0   -3.29    8.87
   7  -1  -1   15.98   12.94
   5  -1  -1    9.09    8.14
   5   1  -1   -2.74   10.38
   3  -1  -1  491.21   24.14
   3  -1  -1  477.54   18.96
  -3   1   1  472.51   21.88
   1  -1  -1   73.51    7.57
   1  -1  -1   71.64    5.87
   1  -1  -1   78.01    5.88
  -1   1   1   95.77    6.37
   1   1  -1   74.00    5.32
  -1   1   1   73.77    6.60
   1  -1   1   84.03    8.45
  -1  -1  -1   97.10    5.98
   1  -1   1   96.35    6.23
   1  -1   1  108.02    6.21
  -1   1  -1  107.17    7.61
  -1   1  -1  101.48    6.89
   1   1   1   92.22    6.15
   3  -1   1   47.22    9.10
   3  -1   1   61.72    6.29
  -3   1  -1   63.68    7.94
  -3   1  -1   53.35    6.74
   3   1   1   30.44    8.78
   5  -1   1   69.47    8.16
   5  -1   1   79.48   13.96
   5   1   1   63.19   14.47
  -5   1  -1   57.70    9.79
   7  -1   1  106.80   21.30
   7   1   1   63.51   20.24
   6  -2  -1  152.41   13.53
   6  -2  -1  188.50   22.83
  -6   2   1  169.41   15.83
   4  -2  -1    2.36    5.94
   4  -2  -1   16.42    9.05
  -4   2   1   -3.98    7.26
   2  -2  -1   39.10    6.11
  -2  -2   1   25.74    4.95
   2  -2  -1   26.69    5.18
   2  -2  -1   28.92    7.08
   2   2  -1   31.00    4.89
  -2   2   1   36.49    6.84
  -2   2   1   28.54    5.82
   0  -2   1  184.67   10.00
   0  -2  -1  218.03   13.46
   0  -2   1  187.96    9.58
   0  -2   1  179.82   11.94
   0  -2  -1  180.11   10.12
   0  -2  -1  187.97    9.93
   0   2   1  181.37   10.44
   0   2  -1  198.65   10.63
   0   2  -1  188.18   10.59
   0   2   1  188.03   11.52
   0   2   1  182.78   10.33
   0   2  -1  193.77   11.56
   2  -2   1   70.59    7.11
   2  -2   1   80.91    7.82
   2  -2   1   62.78   10.51
  -2  -2  -1   70.44    7.03
  -2   2  -1   70.41    8.13
  -2   2  -1   82.85    9.75
   2   2   1   58.91    7.28
  -4  -2  -1  106.75   11.72
   4  -2   1  110.09   11.04
   4  -2   1  120.19   15.76
  -4   2  -1  103.88   13.05
   4   2   1   91.29   10.11
   6  -2   1    6.13    8.18
   6  -2   1   -2.49   12.49
  -6   2  -1   -0.37    9.62
   4  -4  -1    9.41   12.64
   4   4  -1   12.11    9.14
   2  -4  -1    9.10    7.59
   2  -4  -1   33.24   14.42
  -2   4   1    0.05    8.07
   2   4  -1   14.82    9.39
   0  -4  -1   65.97   11.90
   0  -4  -1   86.07   14.55
   0  -4   1   76.34   14.08
   0  -4   1   46.91    9.20
   0   4   1   41.89    9.10
   0   4  -1   27.83    8.55
   2  -4   1   30.33   14.15
  -2  -4  -1   34.80   12.04
   2  -4   1   23.82    8.43
  -2   4  -1   13.22    8.43
   2   4   1   25.33   10.01
  -4  -4  -1   24.24   12.93
   4  -4   1   35.30   14.22
   4   4   1   22.67   10.74
  -4   4  -1   20.01   11.37
   7  -1  -2    9.10   13.99
   5  -1  -2   85.06   13.99
   5   1  -2   58.00   12.86
   3  -1  -2   63.77    9.51
   3  -1  -2   57.46    5.48
   3   1  -2   32.11    6.95
  -3   1   2   48.38    6.74
   1  -1  -2  169.62    8.69
   1  -1  -2  165.61   10.71
   1  -1  -2  158.22    8.45
  -1   1   2  176.90    8.49
   1   1  -2  148.63    7.96
  -1   1   2  159.09    9.63
   1  -1   2  466.35   22.51
   1  -1   2  491.30   18.82
   1  -1   2  471.45   18.40
  -1  -1  -2  471.04   21.14
  -1  -1  -2  461.40   18.72
   1   1   2  471.04   18.58
  -1   1  -2  474.09   21.24
  -1   1  -2  471.19   19.29
  -1   1  -2  488.97   19.07
  -3  -1  -2   -1.62    3.84
   3  -1   2    0.04    5.34
  -3  -1  -2   -2.51    4.69
   3  -1   2  -10.05    3.92
  -3   1  -2   -7.55    4.52
   3   1   2   -1.49    4.61
  -3   1  -2   -3.47    5.18
   3   1   2    1.77    7.51
   5  -1   2    3.08    8.74
   5  -1   2   -5.12    5.58
   5   1   2   13.66   12.26
  -5   1  -2    5.45    7.30
   7  -1   2   85.94   11.41
   7  -1   2   88.77   17.67
   7   1   2   27.60   19.01
  -7   1  -2   78.61   13.90
   6  -2  -2   58.74    9.56
   6  -2  -2   80.01   16.33
  -6   2   2   65.79   13.18
   4  -2  -2  103.50   14.57
   4  -2  -2   92.29    9.86
  -4   2   2   70.32   11.66
   2  -2  -2  163.94    9.79
   2  -2  -2  166.39   10.14
   2  -2  -2  189.98   13.63
  -2  -2   2  155.24   11.42
  -2   2   2  181.85   11.22
  -2   2   2  173.65   12.10
   2   2  -2  165.06   10.49
   0  -2   2    7.52    3.93
   0  -2  -2    5.63    5.87
   0  -2   2    8.16    4.19
   0  -2  -2   14.27    4.16
   0  -2  -2    4.73    4.00
   0   2  -2    5.30    4.52
   0   2   2    4.26    4.44
   0   2  -2   12.06    4.52
   0   2  -2   10.40    4.64
   0   2   2   10.26    3.99
   0   2   2    6.22    4.28
   2  -2   2   29.37    7.31
   2  -2   2   31.64    5.12
   2  -2   2   26.81    5.39
  -2  -2  -2   27.79    5.15
  -2   2  -2   34.98    5.93
   2   2   2   32.35    5.45
  -2   2  -2   47.18    8.74
   4  -2   2  243.36   20.83
   4  -2   2  270.87   15.32
  -4  -2  -2  247.61   16.51
  -4   2  -2  282.12   17.79
   4   2   2  252.51   15.98
   6  -2   2    5.39   13.28
   6  -2   2   12.36    8.60
  -6   2  -2    6.82    9.69
   4  -4  -2   34.49   13.36
   4   4  -2   25.62   10.25
   2  -4  -2   43.87    8.65
   2  -4  -2   47.15   15.63
   2   4  -2   67.92   11.77
  -2   4   2   37.65    9.95
   0  -4   2   -3.92    7.33
   0  -4  -2   12.97   12.34
   0  -4  -2    8.46    7.23
   0   4  -2    4.91    7.57
   0   4   2   -2.75    7.86
  -2  -4  -2   20.52   13.00
  -2  -4  -2   14.80   11.02
   2  -4   2   14.75   13.12
   2  -4   2    9.25    8.17
  -2   4  -2   10.52    8.73
   2   4   2   14.00   10.64
  -4  -4  -2   75.92   15.09
   4  -4   2   76.43   16.33
   4   4   2   65.69   12.63
  -4   4  -2   67.88   13.75
   7  -1  -3   50.78   15.01
   5  -1  -3  268.82   19.90
   3  -1  -3    0.41    3.18
   3  -1  -3   -1.47    5.26
   3   1  -3   -3.40    4.38
  -3   1   3    2.35    3.97
   1  -1  -3    4.09    3.95
  -1  -1   3   -1.89    3.80
   1  -1  -3    2.62    4.51
   1  -1  -3    0.28    3.87
  -1  -1   3    9.86    5.17
  -1   1   3    6.11    4.11
   1   1  -3   -2.93    3.51
  -1   1   3    1.19    3.30
  -1  -1  -3  401.60   16.35
  -1  -1  -3  401.77   18.48
   1  -1   3  382.35   19.57
   1  -1   3  401.11   16.53
   1  -1   3  396.83   16.00
  -1   1  -3  393.16   16.74
  -1   1  -3  378.84   18.89
   1   1   3  415.89   16.60
  -1   1  -3  389.38   17.05
   3  -1   3   13.76    4.82
  -3  -1  -3   19.96    5.12
   3  -1   3   21.37    6.97
   3   1   3    9.99    5.64
  -3   1  -3   17.13    6.49
   3   1   3   -2.17    8.27
  -3   1  -3    5.96    5.50
   5  -1   3   70.85   12.34
   5  -1   3   53.26    9.99
   5   1   3   63.53   15.52
  -5   1  -3   73.33   12.91
   7  -1   3   31.59    8.82
   7  -1   3   24.39   15.72
  -7   1  -3   33.53   12.18
   7   1   3    7.06   17.74
   6  -2  -3   -0.29    7.67
   6  -2  -3  -11.89   12.41
  -6   2   3   10.15    9.26
   4  -2  -3   25.08    6.38
   4  -2  -3   37.19    9.73
  -4   2   3   26.56    8.03
   2  -2  -3  291.52   14.47
   2  -2  -3  296.80   14.20
   2  -2  -3  304.93   18.45
  -2   2   3  296.75   15.03
  -2   2   3  295.58   16.78
   2   2  -3  306.32   14.81
   0  -2  -3   14.54    6.65
   0  -2  -3   17.13    5.97
   0  -2  -3   15.31    4.73
   0  -2  -3    8.73    4.09
   0  -2   3   12.68    4.61
   0  -2   3   11.56    4.43
   0   2   3   13.71    4.69
   0   2   3    7.90    4.84
   0   2  -3   16.76    5.21
   0   2   3   15.34    4.36
   0   2  -3   15.31    4.81
   0   2  -3   18.68    4.90
   2  -2   3    7.82    5.05
   2  -2   3    7.34    4.53
   2  -2   3    9.31    6.69
  -2  -2  -3   12.01    7.08
  -2  -2  -3    9.41    4.95
  -2   2  -3   13.27    5.57
   2   2   3    6.08    5.25
  -2   2  -3    8.32    5.99
   4  -2   3   82.03   16.68
  -4  -2  -3   80.19   11.75
   4  -2   3   95.38   11.25
   4   2   3  101.34   13.37
  -4   2  -3   84.94   13.03
   6  -2   3   41.01    9.84
   6  -2   3   22.25   15.76
   6   2   3   21.56    8.49
  -6   2  -3   27.08   11.11
   4  -4  -3   21.16   15.92
   4   4  -3   11.79   10.02
   2  -4  -3   67.33   11.57
   2  -4  -3   96.85   20.81
   2   4  -3   78.99   13.20
  -2   4   3   64.37   11.13
   0  -4   3    7.92    8.13
   0  -4  -3   11.00   12.84
   0  -4  -3    6.15    7.51
   0   4  -3    5.58    6.78
   0   4   3    5.05    8.34
   2  -4   3   -2.44    7.75
   2  -4   3   -4.76   12.42
  -2  -4  -3   12.31   11.55
  -2   4  -3   -4.93    8.51
  -4  -4  -3   49.40   14.45
   4  -4   3   19.06   13.93
   4   4   3   30.26   11.78
  -4   4  -3   28.38   12.43
   7  -1  -4   -5.93   13.60
   5  -1  -4  156.54   17.13
   3  -1  -4   44.19    7.07
   3  -1  -4   49.07    6.70
  -3   1   4   42.61    7.34
   1  -1  -4  179.69   10.38
  -1  -1   4  169.91   11.20
   1  -1  -4  182.08   11.72
  -1  -1   4  174.20   12.11
   1  -1  -4  173.42   10.17
  -1   1   4  184.91   11.06
   1   1  -4  171.64    9.79
  -1   1   4  185.70    9.63
   1  -1   4   64.87    6.11
  -1  -1  -4   69.74    7.85
   1  -1   4   77.56    8.12
   1  -1   4   64.83    7.99
  -1  -1  -4   72.68    6.81
   1  -1   4   74.46    7.38
  -1   1  -4   66.04    7.54
   1   1   4   60.65    7.84
   1   1   4   66.86    7.61
  -1   1  -4   64.00    8.23
  -1   1  -4   74.58    8.96
   3  -1   4  127.08    9.10
   3  -1   4   97.52   12.86
  -3  -1  -4  126.66   10.81
   3   1   4   97.37   15.76
  -3   1  -4  141.78   13.18
  -3   1  -4   81.47   10.64
   5  -1   4  123.23   17.94
   5  -1   4   99.94   11.33
  -5  -1  -4   66.30   11.81
   5   1   4   70.85   15.81
   5   1   4   71.67   11.57
   7  -1   4    0.48    7.29
   7  -1   4   17.79   15.31
  -7   1  -4    3.07   13.15
   7   1   4   -3.35   17.95
   6  -2  -4    9.04   13.53
   6  -2  -4    7.90    8.11
  -6   2   4   -4.95    9.47
   4  -2  -4   33.47    6.59
   4  -2  -4   30.46   10.00
  -4   2   4   33.49    8.37
   2  -2  -4  211.66   12.08
   2  -2  -4  188.23   15.31
   2  -2  -4  197.65   11.58
  -2   2   4  203.31   13.97
  -2   2   4  191.64   11.98
   2   2  -4  183.14   12.00
   0  -2  -4   55.24   10.25
   0  -2   4   48.60    7.54
   0  -2  -4   47.65    7.66
   0  -2  -4   42.33    9.40
   0  -2   4   38.85    7.68
   0  -2  -4   41.04    6.84
   0   2   4   35.43    7.91
   0   2  -4   37.71    7.20
   0   2   4   47.25    7.77
   0   2   4   35.38    5.50
   0   2  -4   58.96    8.54
   2  -2   4  149.10   10.70
  -2  -2  -4  173.28   11.44
  -2  -2  -4  187.59   14.68
   2  -2   4  167.31   10.94
   2  -2   4  173.70   15.29
   2   2   4  176.68   12.56
  -2   2  -4  180.04   12.77
  -2   2  -4  183.77   13.33
   4  -2   4    7.69   11.09
   4  -2   4   -7.70    7.15
  -4  -2  -4    5.47    6.85
   4   2   4    9.57    8.95
  -4   2  -4   15.44    9.08
   6  -2   4   17.46   10.14
   6  -2   4   15.42   16.18
  -6  -2  -4   18.14    8.92
   6   2   4    8.77    8.90
  -6   2  -4   31.58   11.90
   4  -4  -4    8.89   15.66
   4   4  -4    8.93   10.36
   2  -4  -4   65.27   16.84
   2  -4  -4   38.72    8.57
  -2   4   4   34.83   10.10
   2   4  -4   53.41   12.51
   0  -4  -4    6.51    7.69
   0  -4   4   20.92    9.23
   0  -4  -4   31.81   14.04
   0   4  -4   17.69    7.25
   0   4   4   18.48    9.04
   2  -4   4   33.63    9.59
  -2  -4  -4   44.67   14.11
  -2   4  -4   21.98   10.19
   5  -1  -5   65.34   11.44
   3  -1  -5  118.44   10.49
   3  -1  -5  113.20    9.10
  -3   1   5  103.70    9.43
   1  -1  -5  236.64   13.83
   1  -1  -5  263.65   13.31
  -1  -1   5  223.56   14.70
   1  -1  -5  264.32   14.79
  -1  -1   5  275.04   15.16
   1  -1  -5  260.61   13.12
  -1   1   5  275.82   12.84
  -1   1   5  257.40   14.17
   1   1  -5  276.97   12.78
   1  -1   5   -5.65    5.75
   1  -1   5   -2.74    4.30
  -1  -1  -5    0.43    4.71
  -1  -1  -5    5.44    4.17
  -1  -1  -5   -3.65    3.96
   1  -1   5   -4.38    3.52
   1  -1   5   -4.68    4.72
   1   1   5   -6.27    4.71
  -1   1  -5    5.08    4.90
   1   1   5    2.69    4.79
  -1   1  -5   -3.99    5.67
   1   1   5    1.34    3.58
  -1   1  -5    2.47    5.25
  -3  -1  -5    8.10    6.34
   3  -1   5    2.40    5.15
   3  -1   5    5.67    7.30
  -3   1  -5   -3.06    8.30
   3   1   5   -6.92    9.19
   3   1   5    7.02    6.58
  -3   1  -5    6.18    6.75
   5  -1   5   92.99   15.32
  -5  -1  -5   60.99   12.74
   5  -1   5   93.32   11.71
   5   1   5   49.94    8.97
   5   1   5   44.57   15.37
  -5   1  -5  101.96   17.54
   7  -1   5   -3.95    7.49
   7  -1   5   41.09   17.86
  -7  -1  -5   -1.87   10.67
  -7   1  -5    3.49   15.68
   7   1   5   -5.04   17.53
   7   1   5   17.17    8.04
   6  -2  -5   44.92    9.63
   6  -2  -5   40.03   14.22
  -6   2   5   47.50   11.19
   4  -2  -5  101.51   15.57
   4  -2  -5   86.02   11.12
  -4   2   5   98.94   13.42
   2  -2  -5   11.03    5.72
   2  -2  -5    4.39    6.39
   2  -2  -5   10.62    7.67
   2   2  -5    2.47    5.80
  -2   2   5    9.39    5.46
  -2   2   5    5.53    6.64
   0  -2   5   50.28    9.31
   0  -2   5   41.56    8.23
   0  -2  -5   53.74    8.66
   0  -2  -5   49.72    7.59
   0  -2  -5   50.11    7.44
   0   2   5   42.54    7.57
   0   2   5   41.07    7.65
   0   2  -5   41.33    7.81
   0   2  -5   57.65    9.17
   0   2   5   42.90    6.72
  -2  -2  -5  157.77   13.90
   2  -2   5  182.89   15.68
   2  -2   5  138.15   10.74
   2  -2   5  150.21   10.74
  -2  -2  -5  159.48   11.26
  -2   2  -5  153.58   13.22
   2   2   5  135.91   13.13
  -2   2  -5  159.14   14.02
   4  -2   5   11.05    8.11
  -4  -2  -5   -0.29    7.33
   4  -2   5   -5.22   11.24
   4   2   5   17.12    9.94
  -4   2  -5   18.56   10.24
   6  -2   5   -7.95    9.92
  -6  -2  -5    3.02    8.55
   6  -2   5    4.57   16.79
   6   2   5  -12.06    9.20
  -6   2  -5    3.91   12.09
   2  -4  -5    8.16   13.70
   2  -4  -5    0.13    7.53
   2   4  -5   -6.60   11.79
  -2   4   5    4.57    9.41
   0  -4  -5   17.67   13.22
   0  -4  -5   11.51    7.63
   0  -4   5    3.52   10.16
   0   4   5   21.29    9.20
   0   4  -5    8.53    7.25
  -2  -4  -5   48.04   15.88
   2  -4   5   49.64   11.05
  -2   4  -5   43.66   11.53
   5  -1  -6    1.33    9.09
  -5   1   6    7.49    6.39
   3  -1  -6   -4.86    5.38
  -3  -1   6   -5.59    5.83
   3  -1  -6    0.77    5.20
  -3   1   6   -3.49    4.83
  -1  -1   6  204.15   14.10
  -1  -1   6  165.23   13.12
   1  -1  -6  177.11   11.63
   1  -1  -6  209.40   12.52
   1  -1  -6  198.70   12.85
   1  -1  -6  195.10   11.97
   1   1  -6  190.22   11.31
  -1   1   6  191.19   11.42
  -1   1   6  195.10   12.39
  -1  -1  -6   43.29    9.32
   1  -1   6   27.33    4.83
  -1  -1  -6   35.15    5.61
   1  -1   6   74.41   11.22
   1  -1   6   45.34    7.10
   1  -1   6   23.96    5.44
  -1   1  -6   28.20    6.45
   1   1   6   28.76    6.74
  -1   1  -6   51.52   10.99
   1   1   6   18.48    5.93
  -1   1  -6   31.86    5.97
   1   1   6   20.85    4.70
   3  -1   6   93.50    9.61
   3  -1   6   74.11   14.20
  -3  -1  -6   86.03   12.75
  -3   1  -6   59.61   11.87
   3   1   6   72.02   12.09
  -3   1  -6   98.49   17.94
   3   1   6   84.79   18.24
   5  -1   6   53.97    9.31
  -5  -1  -6   29.97    9.44
   5  -1   6   58.62   15.73
  -5   1  -6   44.64   13.26
   5   1   6   43.34   15.08
   5   1   6   23.42    8.52
   7  -1   6   -4.24   17.86
   7  -1   6    7.79    8.08
  -7  -1  -6   10.68   11.91
   7   1   6   21.10   18.79
   7   1   6    4.37    8.53
  -7   1  -6   -3.77   18.00
   6  -2  -6   -4.06   12.49
   6  -2  -6   -0.17    8.64
  -6   2   6    3.84   10.67
   4  -2  -6  138.85   13.14
   4  -2  -6  146.12   16.10
  -4   2   6  138.00   15.31
   2  -2  -6    7.09    7.60
   2  -2  -6   13.79    8.28
  -2   2   6   11.50    5.76
  -2   2   6   14.44    7.60
   2   2  -6   12.60    6.60
   0  -2   6   31.51    7.89
   0  -2  -6   27.35    8.05
   0  -2  -6    6.96    5.33
   0   2  -6   15.22    5.65
   0   2  -6   19.55    7.04
   0   2   6    4.28    5.45
   2  -2   6   74.95    9.89
  -2  -2  -6   89.51   12.68
   2  -2   6   79.16   14.22
  -2  -2  -6   93.30   10.19
  -2   2  -6   84.51   12.86
   2   2   6   79.81   12.73
  -4  -2  -6   35.59    9.21
   4  -2   6   62.31   15.45
   4  -2   6   37.95    9.40
   4   2   6   42.15   12.16
  -4   2  -6   56.66   13.09
  -6  -2  -6   10.25    9.57
   6  -2   6   28.74   11.57
   6  -2   6   28.59   15.16
   6   2   6   35.94   11.58
  -6   2  -6    7.65   13.60
   2  -4  -6   -0.86   13.59
   2  -4  -6   10.20    9.97
   2   4  -6   12.47   12.52
  -2   4   6    2.56   10.07
   0  -4   6    1.50   11.44
   0  -4  -6   -4.04    7.37
   0  -4  -6    2.79   12.93
   0   4   6   16.04    9.49
   2  -4   6   37.49   11.60
  -2  -4  -6   15.61   15.15
  -2   4  -6   17.19   11.55
   5  -1  -7   29.83    6.65
  -5   1   7   37.76    7.91
   3  -1  -7   74.71   10.16
   3  -1  -7   72.92   10.77
  -3  -1   7   51.54   11.38
   3   1  -7   85.15    8.75
  -3   1   7   86.47    9.81
  -1  -1   7   75.07   10.93
   1  -1  -7  111.60   10.37
   1  -1  -7   71.60    9.92
   1  -1  -7   75.90    9.72
  -1  -1   7   91.53   12.42
   1   1  -7   76.23    9.22
  -1   1   7   82.72    9.66
  -1   1   7   92.86    9.30
   1  -1   7   65.75   13.31
  -1  -1  -7   52.17    8.73
   1  -1   7   53.83    8.00
  -1  -1  -7   69.42   11.09
   1  -1   7   44.92    8.13
  -1   1  -7   47.65    7.51
   1   1   7   26.05    5.44
  -1   1  -7   41.13    7.07
   1   1   7   28.39    7.70
  -1   1  -7   46.08    9.13
   3  -1   7   75.17   15.20
  -3  -1  -7   86.20   14.35
   3  -1   7   80.33    9.01
   3  -1   7   90.57   10.30
   3   1   7   86.60   12.61
  -3   1  -7   94.26   13.30
  -3   1  -7  117.40   21.32
  -5  -1  -7   14.18    9.68
   5  -1   7    8.05    8.56
   5  -1   7   10.33   15.57
   5   1   7    9.50    8.79
   5   1   7    0.59   14.18
  -5   1  -7    2.17   14.06
   6  -2  -7    7.47    8.98
  -6   2   7    4.56   11.32
   4  -2  -7   99.03   13.44
   4  -2  -7   93.85   15.31
  -4   2   7   64.58   14.41
   4   2  -7   89.63   10.51
   2  -2  -7   27.72    9.44
   2  -2  -7   40.46    9.94
   2   2  -7   34.37    7.87
  -2   2   7   30.36    6.92
  -2   2   7   32.23    9.05
   0  -2   7  141.50   15.02
   0  -2  -7  135.20   10.69
   0  -2  -7   85.99   13.70
   0   2  -7  130.26   12.49
   0   2  -7  113.20   11.18
   0   2   7   85.37   10.74
  -2  -2  -7   24.32    6.78
   2  -2   7   23.96    7.30
  -2  -2  -7   42.76    8.87
   2  -2   7   35.26   10.37
  -2   2  -7   20.19    9.05
   2   2   7   16.43    5.80
   2   2   7   16.13    9.09
  -4  -2  -7    4.18    8.63
   4  -2   7   19.59   14.75
  -4   2  -7    3.26   14.15
   4   2   7   -3.45   11.39
   6  -2   7   57.31   17.01
  -6  -2  -7   26.05   11.38
   6  -2   7   34.00   11.49
  -6   2  -7   65.51   17.61
   6   2   7   20.13   11.97
   2  -4  -7    3.12   10.27
   2  -4  -7   -1.78   13.06
   2   4  -7   14.66   12.84
  -2   4   7    2.83   12.14
   0  -4  -7   33.28    8.89
   0  -4  -7   40.53   15.36
   0  -4   7   12.25   12.95
   0   4   7   12.28   10.43
  -2  -4  -7   18.92   16.49
   5  -1  -8   23.54    7.28
  -5   1   8   28.91    8.73
  -3  -1   8  101.21   13.77
   3  -1  -8  106.55   12.82
   3  -1  -8  105.99   11.44
   3   1  -8   97.94   10.10
  -3   1   8  103.76   11.50
   1  -1  -8   -2.42    6.99
  -1  -1   8   11.99    7.16
   1  -1  -8    3.56    6.28
   1  -1  -8   -3.18    6.19
  -1  -1   8   -3.03    8.17
  -1   1   8   -0.45    6.47
   1   1  -8   -0.78    6.09
  -1   1   8   -1.15    5.77
  -1  -1  -8    2.77    5.98
   1  -1   8   -0.09    5.50
   1  -1   8    1.72    7.07
  -1  -1  -8   11.29    7.64
  -1   1  -8   -0.34    6.32
   1   1   8    2.69    5.15
   1   1   8    9.05    8.15
  -3  -1  -8   94.73   16.22
   3  -1   8   75.94   10.88
   3  -1   8   61.84   12.23
   3  -1   8   67.14    9.46
  -3  -1  -8   72.59   11.83
  -3   1  -8  102.28   14.03
   3   1   8  107.22   13.59
  -3   1  -8   79.76   16.99
  -5  -1  -8   18.43   11.00
   5  -1   8   22.92    9.60
   5  -1   8   27.67   17.40
  -5   1  -8   26.71   15.80
   5   1   8    7.74    9.16
   5   1   8   25.14   16.61
   6  -2  -8    8.32    9.65
  -6   2   8   29.16   12.30
   4  -2  -8    1.84    9.92
   4  -2  -8    7.43    9.01
  -4   2   8    6.63    9.78
   4   2  -8    8.90    7.05
   2  -2  -8   18.94   10.12
   2  -2  -8   20.22    9.71
  -2  -2   8   17.99    9.27
   2   2  -8   29.67    8.63
  -2   2   8   11.75    7.14
  -2   2   8   23.67    9.30
   0  -2  -8   57.82   10.86
   0  -2  -8   63.32   10.41
   0  -2   8   75.66   12.31
   0   2  -8   70.69   11.23
   0   2  -8   77.65   11.03
   0   2   8   45.13    8.19
  -2  -2  -8   14.52    6.96
   2  -2   8   18.31    8.17
  -2  -2  -8   18.63    8.69
   2   2   8    5.72    6.31
   2   2   8   23.13   10.40
  -2   2  -8   18.94    9.50
   4  -2   8  -12.25   14.95
  -4  -2  -8    2.70    8.79
   4   2   8   -0.09   11.95
  -4   2  -8    2.96   11.96
   0  -4   8   28.52   16.14
   0  -4  -8   18.94   14.72
   5  -1  -9    3.23    7.92
  -5   1   9    2.36    8.87
  -3  -1   9   88.42   15.06
   3  -1  -9  110.14   14.00
   3   1  -9   77.15   10.95
  -3   1   9   90.88   12.24
   1  -1  -9   43.85    8.43
   1  -1  -9   47.72    9.35
  -1  -1   9   37.27    8.88
   1  -1  -9   33.68    7.93
  -1  -1   9   35.73   10.63
  -1   1   9   33.26    8.64
   1   1  -9   21.54    7.91
  -1   1   9   37.46    7.79
  -1  -1  -9   22.80    7.31
   1  -1   9   17.63    8.20
  -1   1  -9   23.22    7.80
   1   1   9   21.83    6.82
  -3  -1  -9   24.42    8.51
  -3  -1  -9   37.33   11.75
   3  -1   9   24.70    6.99
   3  -1   9   37.01   11.41
  -3   1  -9   76.41   14.07
   3   1   9   40.04    9.24
   5  -1   9   -0.18    9.42
   5  -1   9   -2.24   14.06
  -5  -1  -9   -0.12   10.86
  -5   1  -9   -3.03   16.30
   5   1   9   11.50   17.17
   5   1   9    0.88    9.49
   6  -2  -9   48.41   10.90
  -6   2   9   42.73   13.61
  -4  -2   9    1.91   11.21
   4  -2  -9   22.00   10.97
   4  -2  -9   10.57   10.11
  -4   2   9    4.20    9.91
   4   2  -9   11.81    7.92
   2  -2  -9    5.64    9.56
   2  -2  -9   22.05   10.74
  -2  -2   9    1.80   10.45
   2   2  -9   11.22    9.10
  -2   2   9   13.72    9.75
  -2   2   9    8.40    7.67
   0  -2   9   79.89   13.11
   0  -2  -9   62.31   11.25
   0  -2  -9   53.25   11.48
   0   2  -9   65.99    9.62
   0   2   9   29.15    8.73
  -2  -2  -9   22.00    8.01
   2  -2   9   23.45    9.23
  -2   2  -9   17.38    9.84
   2   2   9   25.19    7.87
   4  -2   9   30.63   17.40
  -4  -2  -9   13.93   10.13
   4   2   9   31.22   13.56
  -4   2  -9   18.53   12.92
   5  -1 -10   -7.28    9.51
  -5   1  10   13.34   10.20
   5   1 -10    7.83    8.42
  -3  -1  10   19.77   11.57
   3  -1 -10   22.68   10.52
   3   1 -10   23.94    8.06
  -3   1  10   30.71    8.87
   1  -1 -10   14.57    8.74
   1  -1 -10   16.39    8.23
  -1  -1  10   21.44    8.61
  -1  -1  10   10.54   10.56
   1  -1 -10   18.42   10.01
  -1   1  10   11.35    7.77
   1   1 -10    7.06    8.62
  -1   1  10   21.10    8.98
   1  -1  10   42.69    9.95
  -1  -1 -10   44.85    8.95
   1   1  10   49.58    8.75
  -1   1 -10   63.33   11.83
  -3  -1 -10    5.47    8.32
   3  -1  10   -2.94    6.60
   3  -1  10   -5.39   10.67
  -3   1 -10   -5.85    9.15
  -5  -1 -10   -3.68   11.80
   5  -1  10    1.19   15.20
   5   1  10   -8.83    9.23
  -4  -2  10    6.91   12.68
   4  -2 -10   17.40   10.84
  -4   2  10   22.35   10.92
   4   2 -10   23.09    8.82
   2  -2 -10   26.76   10.79
  -2  -2  10   47.63   12.78
  -2   2  10   48.99   11.75
  -2   2  10   42.96    9.75
   2   2 -10   39.82   10.85
   0  -2  10   -0.58   11.58
   0  -2 -10    7.84    8.31
   0  -2 -10   14.17   10.63
   0   2 -10   -5.26    8.90
   0   2  10   10.67    8.62
  -2  -2 -10   14.10    8.29
   2  -2  10    9.93    9.93
  -2   2 -10    7.57    9.55
   2   2  10    9.42    8.21
  -4   2 -10   27.59   14.03
  -5  -1  11   45.56   13.00
   5  -1 -11   58.35   12.43
  -5   1  11   47.02   12.35
   5   1 -11   21.95    9.62
   3  -1 -11  -16.27   10.22
  -3  -1  11   11.74   11.84
  -3   1  11    3.41    8.98
   3   1 -11   -6.36    7.99
  -1  -1  11  -22.60   10.47
   1  -1 -11    2.84    9.22
  -1  -1  11    3.25    8.87
   1   1 -11  -12.62    9.21
  -1   1  11    4.39    8.60
  -1  -1 -11   64.41   13.20
   1  -1  11   81.30   12.39
  -1   1 -11   74.51   13.53
   1   1  11   85.33   14.03
  -3  -1 -11    5.90    9.40
   3  -1  11    7.36    7.40
  -3   1 -11   23.45   10.49
   4  -2 -11   16.09   12.08
  -4  -2  11   -8.60   13.38
   4   2 -11   21.94    9.77
  -4   2  11    2.69   10.72
  -2  -2  11   35.16   14.15
   2  -2 -11   40.26   12.02
   2   2 -11   47.76   11.44
  -2   2  11   26.25   11.16
   0  -2 -11   15.89   11.64
   0  -2  11   16.69   12.51
   0  -2 -11   14.57    9.52
   0   2  11   11.09    9.38
   0   2 -11    8.82    9.97
   2  -2  11    5.31   10.32
  -2  -2 -11   -2.94    8.62
  -2   2 -11   -1.16    9.73
   2   2  11   -1.42    8.05
  -4   2 -11   -8.90   13.09
   5  -1 -12   18.23   13.09
  -5  -1  12   28.35   13.66
   5   1 -12   29.13   10.46
  -5   1  12   46.41   13.43
   3  -1 -12   24.26   12.27
  -3  -1  12   10.95   12.84
  -3   1  12    6.38    9.78
   3   1 -12    9.38    9.06
  -1  -1  12   12.58   12.34
   1  -1 -12   26.35   10.63
  -1   1  12   -3.22    9.85
   1   1 -12   24.16   10.78
  -1  -1 -12   23.28    9.87
   1  -1  12   -1.04    9.45
   1   1  12   20.01   10.53
  -1   1 -12   24.55    9.90
   3  -1  12    3.55    7.06
  -3  -1 -12    9.55   10.30
  -3   1 -12   -5.45    9.90
   4  -2 -12    9.39   12.73
  -4  -2  12   -8.60   14.41
  -4   2  12   12.43   11.39
   4   2 -12    6.45    9.62
  -2  -2  12   36.32   14.99
   2   2 -12   23.52   11.76
   0  -2 -12    8.80   10.18
   0  -2  12  -12.28   11.89
   0  -2 -12   15.52   12.52
   0   2  12   13.98   10.58
   0   2 -12   14.12   10.99
  -2  -2 -12    6.11    9.77
   2  -2  12    5.23   10.65
   2   2  12   13.45    9.40
  -2   2 -12   15.71   10.25
   3  -1 -13   27.14   12.89
  -3  -1  13   -1.04   13.24
   3   1 -13    9.59    9.53
  -3   1  13    3.84   10.60
  -1   1  13   23.16   12.16
   1  -1  13   -4.85    9.92
  -1  -1 -13    4.87    9.92
   1   1  13   -1.41   10.62
  -1   1 -13   -6.94   10.36
  -3  -1 -13   20.00   11.51
  -3   1 -13   -0.24   11.25
  -2  -2  13  -13.95   14.42
   2   2 -13   -8.09   11.15
   0  -2 -13   12.05   11.96
   0  -2  13   -8.64   12.33
   0  -2 -13    2.81   12.91
   0   2  13    2.83   11.15
   3  -1 -14   -4.15   13.22
  -3  -1  14   -4.13   13.50
   3   1 -14   20.52   10.12
  -3   1  14   -2.40   11.43
  -1   1  14   28.28   14.22
   1  -1  14    2.15   10.81
  -1  -1 -14    1.00   11.52
  -1   1 -14    5.58   12.19
   1   1  14   10.84   11.76
;
_shelx_hkl_checksum              87407
_olex2_exptl_crystal_mounting_method 'Paratone oil on kapton head'
_olex2_submission_special_instructions 'No special instructions were received'
#END Tags that were not found in dictionaries
loop_
_space_group_symop_operation_xyz
'x, y, z'
'-x, y, -z'
'x+1/2, y+1/2, z'
'-x+1/2, y+1/2, -z'
'-x, -y, -z'
'x, -y, z'
'-x+1/2, -y+1/2, -z'
'x+1/2, -y+1/2, z'
loop_
_atom_site_label
_atom_site_type_symbol
_atom_site_fract_x
_atom_site_fract_y
_atom_site_fract_z
_atom_site_U_iso_or_equiv
_atom_site_adp_type
_atom_site_occupancy
_atom_site_site_symmetry_order
_atom_site_calc_flag
_atom_site_refinement_flags_posn
_atom_site_refinement_flags_adp
_atom_site_refinement_flags_occupancy
Se1 Se 0.8142(8) 0.5000 0.8760(5) 0.0171(18) Uani 1 2 d S T P
Cr1 Cr 0.5000 0.5000 1.0000 0.018(3) Uani 1 4 d S T P
loop_
_atom_site_aniso_label
_atom_site_aniso_U_11
_atom_site_aniso_U_22
_atom_site_aniso_U_33
_atom_site_aniso_U_23
_atom_site_aniso_U_13
_atom_site_aniso_U_12
Se1 0.007(3) 0.013(2) 0.032(3) 0.000 0.0058(17) 0.000
Cr1 0.004(5) 0.019(5) 0.032(7) 0.000 0.004(4) 0.000
loop_
_atom_type_symbol
_atom_type_description
_atom_type_scat_dispersion_real
_atom_type_scat_dispersion_imag
_atom_type_scat_source
Cr Cr 0.3209 0.6236 'International Tables Vol C Tables 4.2.6.8 and 6.1.1.4'
Se Se -0.0929 2.2259 'International Tables Vol C Tables 4.2.6.8 and 6.1.1.4'
loop_
_geom_angle_atom_site_label_1
_geom_angle_atom_site_label_2
_geom_angle_atom_site_label_3
_geom_angle
_geom_angle_site_symmetry_1
_geom_angle_site_symmetry_3
Cr1 Se1 Cr1 90.89(16) . 3
Cr1 Se1 Cr1 90.89(16) . 3_545
Cr1 Se1 Cr1 91.90(18) 3 3_545
Se1 Cr1 Se1 90.88(16) 5_667 7_657
Se1 Cr1 Se1 90.88(16) 5_667 7_667
Se1 Cr1 Se1 180.0 7_667 3_445
Se1 Cr1 Se1 180.0 . 5_667
Se1 Cr1 Se1 90.88(16) . 3_445
Se1 Cr1 Se1 89.12(16) 5_667 3_455
Se1 Cr1 Se1 88.10(18) 7_667 3_455
Se1 Cr1 Se1 88.10(18) 3_445 7_657
Se1 Cr1 Se1 180.0 3_455 7_657
Se1 Cr1 Se1 91.90(18) 7_667 7_657
Se1 Cr1 Se1 89.12(16) 5_667 3_445
Se1 Cr1 Se1 91.90(18) 3_445 3_455
Se1 Cr1 Se1 89.12(16) . 7_657
Se1 Cr1 Se1 90.88(16) . 3_455
Se1 Cr1 Se1 89.12(16) . 7_667
loop_
_geom_bond_atom_site_label_1
_geom_bond_atom_site_label_2
_geom_bond_distance
_geom_bond_site_symmetry_2
Se1 Cr1 2.507(5) .
Se1 Cr1 2.508(4) 3
Se1 Cr1 2.508(4) 3_545
Cr1 Se1 2.508(4) 7_657
Cr1 Se1 2.508(4) 3_445
Cr1 Se1 2.508(4) 7_667
Cr1 Se1 2.507(5) 5_667
Cr1 Se1 2.508(4) 3_455
