#------------------------------------------------------------------------------
#$Date: 2016-03-24 00:14:39 +0200 (Thu, 24 Mar 2016) $
#$Revision: 179528 $
#$URL: svn://www.crystallography.net/cod/cif/4/34/25/4342500.cif $
#------------------------------------------------------------------------------
#
# This file is available in the Crystallography Open Database (COD),
# http://www.crystallography.net/
#
# All data on this site have been placed in the public domain by the
# contributors.
#
data_4342500
loop_
_publ_author_name
'Clarke, Samantha M.'
'Freedman, Danna E.'
_publ_section_title
;
 (BiSe)1.23CrSe2 and (BiSe)1.22(Cr1.2Se2)2: Magnetic Anisotropy in the
 First Structurally Characterized Bi-Se-Cr Ternary Compounds.
;
_journal_issue                   6
_journal_name_full               'Inorganic chemistry'
_journal_page_first              2765
_journal_page_last               2771
_journal_paper_doi               10.1021/ic5029178
_journal_volume                  54
_journal_year                    2015
_chemical_formula_moiety         '0.13(Bi8 Se8)'
_chemical_formula_sum            'Bi Se'
_chemical_formula_weight         287.94
_chemical_name_systematic        'Bismuth Chromium Selenide'
_space_group_crystal_system      monoclinic
_space_group_IT_number           12
_space_group_name_Hall           '-C 2y'
_space_group_name_H-M_alt        'C 1 2/m 1'
_symmetry_space_group_name_Hall  '-C 2y'
_symmetry_space_group_name_H-M   'C 1 2/m 1'
_atom_sites_solution_primary     direct
_audit_creation_date             2014-10-28
_audit_creation_method
;
Olex2 1.2
(compiled 2014.09.19 svn.r3010 for OlexSys, GUI svn.r4874)
;
_cell_angle_alpha                90
_cell_angle_beta                 93.552(5)
_cell_angle_gamma                90
_cell_formula_units_Z            4
_cell_length_a                   6.2060(4)
_cell_length_b                   5.8849(5)
_cell_length_c                   17.2377(10)
_cell_measurement_reflns_used    1957
_cell_measurement_temperature    250
_cell_measurement_theta_max      67.18
_cell_measurement_theta_min      10.33
_cell_volume                     628.34(8)
_computing_molecular_graphics    'Olex2 (Dolomanov et al., 2009)'
_computing_publication_material  'Olex2 (Dolomanov et al., 2009)'
_computing_structure_refinement  'XL (Sheldrick, 2008)'
_computing_structure_solution    'ShelXT (Sheldrick, 2008)'
_diffrn_ambient_temperature      250
_diffrn_detector                 'Bruker APEX2 area detector'
_diffrn_detector_area_resol_mean 7.9
_diffrn_detector_type            'CCD area detector'
_diffrn_measured_fraction_theta_full 0.658
_diffrn_measured_fraction_theta_max 0.707
_diffrn_measurement_device       'three-circle diffractometer'
_diffrn_measurement_device_type  'Bruker APEX-II CCD'
_diffrn_measurement_method       '\w and \f scans'
_diffrn_radiation_monochromator  'mirror optics'
_diffrn_radiation_probe          x-ray
_diffrn_radiation_type           CuK\a
_diffrn_radiation_wavelength     1.54178
_diffrn_reflns_av_R_equivalents  0.1317
_diffrn_reflns_av_unetI/netI     0.0702
_diffrn_reflns_Laue_measured_fraction_full 0.658
_diffrn_reflns_Laue_measured_fraction_max 0.707
_diffrn_reflns_limit_h_max       7
_diffrn_reflns_limit_h_min       -7
_diffrn_reflns_limit_k_max       4
_diffrn_reflns_limit_k_min       -6
_diffrn_reflns_limit_l_max       20
_diffrn_reflns_limit_l_min       -20
_diffrn_reflns_number            2591
_diffrn_reflns_point_group_measured_fraction_full 0.658
_diffrn_reflns_point_group_measured_fraction_max 0.707
_diffrn_reflns_theta_full        67.679
_diffrn_reflns_theta_max         65.038
_diffrn_reflns_theta_min         10.410
_diffrn_source                   'microfocus sealed X-ray tube'
_diffrn_source_type              'Incoatec I\ms'
_diffrn_standards_number         0
_exptl_absorpt_coefficient_mu    60.349
_exptl_absorpt_correction_T_max  0.7529
_exptl_absorpt_correction_T_min  0.3597
_exptl_absorpt_correction_type   multi-scan
_exptl_absorpt_process_details
;
SADABS-2012/1 (Bruker,2012) was used for absorption correction.
wR2(int) was 0.1352 before and 0.0711 after correction.
The Ratio of minimum to maximum transmission is 0.4778.
The \l/2 correction factor is 0.0015.
;
_exptl_crystal_colour            'metallic grayish'
_exptl_crystal_colour_lustre     metallic
_exptl_crystal_colour_modifier   grayish
_exptl_crystal_density_diffrn    3.044
_exptl_crystal_description       plate
_exptl_crystal_F_000             468
_exptl_crystal_preparation       'solid state reaction'
_exptl_crystal_recrystallization_method 'salt flux'
_exptl_crystal_size_max          0.05
_exptl_crystal_size_mid          0.05
_exptl_crystal_size_min          0.02
_refine_diff_density_max         4.963
_refine_diff_density_min         -4.450
_refine_diff_density_rms         0.722
_refine_ls_extinction_method     none
_refine_ls_goodness_of_fit_ref   1.086
_refine_ls_hydrogen_treatment    undef
_refine_ls_matrix_type           full
_refine_ls_number_parameters     13
_refine_ls_number_reflns         412
_refine_ls_number_restraints     0
_refine_ls_restrained_S_all      1.086
_refine_ls_R_factor_all          0.1399
_refine_ls_R_factor_gt           0.1238
_refine_ls_shift/su_max          0.000
_refine_ls_shift/su_mean         0.000
_refine_ls_structure_factor_coef Fsqd
_refine_ls_weighting_details
'w=1/[\s^2^(Fo^2^)+(0.1767P)^2^+212.0842P] where P=(Fo^2^+2Fc^2^)/3'
_refine_ls_weighting_scheme      calc
_refine_ls_wR_factor_gt          0.3092
_refine_ls_wR_factor_ref         0.3258
_reflns_Friedel_coverage         0.000
_reflns_number_gt                346
_reflns_number_total             412
_reflns_threshold_expression     'I > 2\s(I)'
_cod_data_source_file            ic5029178_si_002.cif
_cod_data_source_block           c2
_cod_depositor_comments
'Adding full bibliography for 4342497--4342502.cif.'
_cod_database_code               4342500
#BEGIN Tags that were not found in dictionaries:
_shelxl_version_number           2013-3
_shelx_space_group_comment
;
The symmetry employed for this shelxl refinement is uniquely defined
by the following loop, which should always be used as a source of
symmetry information in preference to the above space-group names.
They are only intended as comments.
;
_olex2_refinement_description
;
1. Others
 Fixed U12: Bi1(0) Se1(0)
 Fixed U23: Bi1(0) Se1(0)
 Fixed Y: Bi1(0.5) Se1(0)
;
_shelx_res_file
;
TITL C2 in C2 #5 New: C2/m
CELL 1.54178 6.206 5.8849 17.2377 90 93.552 90
ZERR 4 0.0004 0.0005 0.001 0 0.005 0
LATT 7
SYMM -X,+Y,-Z

SFAC Bi Se
UNIT 4 4

L.S. 20
PLAN  -4
BOND $H
MORE -1
fmap 2
acta
REM <HKL>C:/Users/Samantha/Documents/XRD/smc52_2/work/bise_1/C2b.hkl</HKL>

WGHT    0.176700  212.084198
FVAR       0.04997
BI1   1    0.221298    0.500000    0.405650    10.50000    0.06530    0.06614 =
         0.04804    0.00000    0.00736    0.00000
SE1   2    0.237940    0.000000    0.434505    10.50000    0.02852    0.00933 =
         0.03670    0.00000    0.00834    0.00000
HKLF 4

REM  C2 in C2 #5 New: C2/m
REM R1 =  0.1238 for     346 Fo > 4sig(Fo)  and  0.1399 for all     412 data
REM     13 parameters refined using      0 restraints

END

WGHT      0.1767    212.0112

REM Highest difference peak  4.963,  deepest hole -4.450,  1-sigma level  0.722
Q1    1   0.3162  0.5000  0.3718  10.50000  0.05    4.96
Q2    1   0.2562  0.5000  0.4846  10.50000  0.05    4.32
Q3    1   0.2044  0.5000  0.3387  10.50000  0.05    4.25
Q4    1   0.6198  0.0858  0.3796  11.00000  0.05    3.00
;
_shelx_res_checksum              97349
_shelx_hkl_file
;
   1  -1   0    4.11    0.68
   1  -1   0    3.97    0.39
  -1   1   0    5.18    0.74
   1   1   0    3.78    0.56
  -3  -1   0    5.75    1.04
   3  -1   0    6.32    0.91
   3  -1   0    6.15    0.70
  -3   1   0    8.27    1.46
   3   1   0    9.17    1.22
   5  -1   0    3.88    0.92
   5  -1   0    8.41    2.53
   5  -1   0    3.59    1.12
   5  -1   0    6.55    1.70
   5  -1   0    2.63    1.24
  -5  -1   0    3.85    1.09
  -5   1   0    5.03    1.62
   5   1   0    5.05    1.45
  -5   1   0    3.85    1.64
   5   1   0    4.64    1.48
   5   1   0    4.57    1.51
  -5   1   0    2.68    1.71
   7  -1   0    1.18    1.16
   7  -1   0    0.52    0.90
   7  -1   0    1.35    1.40
   7   1   0    0.54    0.91
   7   1   0   -0.39    1.09
   0  -2   0  349.85   27.77
  -2  -2   0  257.27   20.16
   2  -2   0  254.80   20.24
  -2  -2   0  277.08   20.40
  -2  -2   0  242.02   20.10
   2  -2   0  227.83   21.65
  -2   2   0  326.33   19.67
   2   2   0  303.69   19.53
   4  -2   0   55.75    4.28
   4  -2   0   56.33    3.56
   4  -2   0   56.18    4.73
   4  -2   0   60.53    5.02
   4  -2   0   53.86    3.49
  -4  -2   0   61.08    5.17
  -4  -2   0   59.73    3.77
  -4   2   0   77.81    5.82
  -4   2   0   77.49    5.78
   4   2   0   77.40    5.39
   4   2   0   82.73    5.63
   6  -2   0    7.50    1.69
   6  -2   0   10.17    1.93
   6  -2   0    4.66    1.57
   6  -2   0    4.78    1.01
   6   2   0    5.35    1.29
  -6   2   0    5.45    1.90
  -6   2   0    7.08    2.17
  -1  -3   0    2.07    0.93
   1  -3   0    2.22    0.96
  -1   3   0    3.11    1.03
  -3  -3   0    4.66    1.30
  -3  -3   0    6.15    1.75
   3  -3   0    4.44    1.61
  -3  -3   0    5.03    1.08
   3  -3   0    3.98    1.87
  -3  -3   0    5.46    0.94
   3  -3   0    2.43    1.05
  -3  -3   0    2.34    1.36
   3  -3   0    4.77    0.92
   3  -3   0    6.28    1.88
   3  -3   0    4.94    1.10
  -3   3   0    8.23    2.13
   3   3   0   10.55    1.82
   5  -3   0    2.85    0.86
  -5  -3   0    2.72    1.05
  -5  -3   0   -0.64    1.55
   5  -3   0    1.19    0.92
   5  -3   0    5.47    2.03
   5  -3   0    2.38    1.64
  -5   3   0    6.12    1.99
   5   3   0    2.39    1.21
   0  -4   0  104.79    9.84
   0  -4   0  105.26    7.94
   0  -4   0  113.87    6.57
   0  -4   0  103.97    9.00
   2  -4   0   81.90    7.14
   2  -4   0   76.89    7.87
  -2  -4   0   78.34    8.01
  -2  -4   0   83.64    5.84
   2  -4   0   83.14    6.41
  -2  -4   0   82.84    6.35
  -2  -4   0   83.86    5.33
  -2  -4   0   87.84    7.32
   4  -4   0   31.04    2.35
  -4  -4   0   31.54    3.01
  -4  -4   0   31.73    3.30
  -4  -4   0   35.09    3.93
   4  -4   0   30.90    3.25
  -4   4   0   34.02    3.62
   0  -6   0   21.58    2.90
   0  -6   0   24.59    3.78
  -2  -6   0   15.20    2.24
   2  -6   0   15.34    2.90
   7  -1  -1    1.74    0.91
   7  -1  -1    0.99    1.37
   7  -1  -1    1.79    1.26
   7   1  -1    0.62    0.96
  -7   1   1   -1.48    1.38
   5  -1  -1    2.69    0.83
   5  -1  -1    4.03    1.46
  -5  -1   1    3.42    1.08
   5  -1  -1    3.19    1.28
   5  -1  -1    4.34    2.10
  -5  -1   1    2.79    1.95
  -5   1   1    4.04    1.60
  -5   1   1    1.86    1.65
  -5   1   1    2.13    1.57
   5   1  -1    4.73    1.78
   5   1  -1    3.10    1.42
   5   1  -1    4.05    1.35
   3  -1  -1    0.78    0.58
   3  -1  -1    0.09    0.29
  -3  -1   1    1.27    0.83
  -3   1   1    1.34    0.99
   3   1  -1    0.75    0.72
   1  -1  -1   19.59    1.30
   1  -1  -1   20.92    1.24
  -1   1   1   20.28    1.46
   1   1  -1   19.26    1.39
   1  -1   1   51.72    3.12
   1  -1   1   56.53    4.38
   1   1   1   56.30    3.55
  -1   1  -1   55.79    3.63
  -3  -1  -1   22.08    2.12
   3  -1   1   22.06    1.76
  -3   1  -1   29.73    2.50
   3   1   1   29.43    2.33
   5  -1   1    6.88    1.74
   5  -1   1    2.58    0.82
   5  -1   1    6.38    2.61
   5  -1   1    1.01    0.91
  -5  -1  -1    2.13    0.92
  -5   1  -1    2.22    1.58
  -5   1  -1    2.30    1.77
   5   1   1    5.14    1.46
   5   1   1    1.47    1.25
   5   1   1    5.33    1.77
  -5   1  -1    2.88    1.34
   7  -1   1    1.11    1.17
   7  -1   1    0.42    1.01
   7  -1   1    0.63    1.37
   7   1   1   -0.31    0.83
   7   1   1    0.83    1.32
   6  -2  -1   20.02    2.39
   6  -2  -1   13.10    1.41
   6  -2  -1   10.44    2.06
   6  -2  -1   14.07    1.84
   6   2  -1   14.94    1.84
  -6   2   1   15.48    2.44
  -6   2   1   14.61    2.34
  -4  -2   1   93.97    5.55
   4  -2  -1   87.41    5.23
   4  -2  -1   85.71    6.60
  -4  -2   1   91.77    7.58
   4  -2  -1   86.49    5.07
   4  -2  -1   88.72    6.00
   4  -2  -1   84.12    7.25
   4   2  -1  121.28    7.71
  -4   2   1  122.22    8.13
  -4   2   1  113.51    8.26
   4   2  -1  123.49    8.09
   2  -2  -1  289.32   21.30
  -2  -2   1  254.10   21.15
  -2  -2   1  269.15   21.47
  -2  -2   1  274.53   21.23
   2  -2  -1  236.09   22.88
  -2   2   1  351.14   21.14
   2   2  -1  326.87   21.02
   0  -2  -1  294.03   24.69
   0  -2   1  308.31   23.00
   0  -2  -1  277.98   22.95
   0  -2   1  293.44   22.61
   0  -2   1  269.73   22.93
   2  -2   1  106.55    8.74
   2  -2   1  112.83    8.95
   2  -2   1  111.28    6.16
  -2  -2  -1  111.48    8.80
  -2  -2  -1  109.34    8.80
   2  -2   1   96.44    6.30
   2   2   1  140.63    8.94
  -2   2  -1  142.59    9.09
   4  -2   1   25.84    2.62
   4  -2   1   22.14    2.37
   4  -2   1   22.63    1.79
   4  -2   1   20.66    1.65
   4  -2   1   23.30    2.87
  -4  -2  -1   24.75    1.82
  -4   2  -1   26.63    2.91
   4   2   1   28.30    2.64
   4   2   1   26.58    2.46
  -4   2  -1   29.50    2.94
   6  -2   1    0.90    0.72
   6  -2   1    1.69    1.42
   6  -2   1    1.55    1.63
   6  -2   1    1.14    1.24
  -6   2  -1    3.25    1.78
   6   2   1    1.24    0.95
  -6   2  -1    0.05    1.49
  -5  -3   1    1.48    0.94
   5  -3  -1    1.05    0.73
  -5  -3   1   -0.26    1.59
   5  -3  -1    2.59    1.84
   5  -3  -1    2.61    1.45
  -5   3   1    2.59    1.74
  -5   3   1    3.67    1.98
   5   3  -1    1.77    1.15
   3  -3  -1   -0.07    1.37
   3  -3  -1    2.62    1.53
  -3  -3   1    1.37    1.24
  -3  -3   1    0.04    0.49
   3  -3  -1    0.97    1.24
   3  -3  -1    0.52    0.51
  -3  -3   1    0.18    1.29
  -3  -3   1    0.19    0.58
   3  -3  -1    0.54    0.72
  -3  -3   1    0.67    0.81
   3   3  -1    0.65    1.26
  -3   3   1    1.75    1.41
  -1  -3   1    5.41    1.34
   1  -3  -1    4.68    1.08
   1  -3  -1    4.92    1.32
  -1  -3  -1   11.66    1.65
   1  -3   1   10.24    1.64
   1  -3   1   13.75    1.22
  -1   3  -1   12.02    1.38
   3  -3   1   18.33    2.48
   3  -3   1   13.95    2.22
  -3  -3  -1   12.09    1.47
  -3  -3  -1   16.22    2.02
  -3  -3  -1   10.23    1.66
   3  -3   1    8.81    1.57
   3  -3   1   11.64    1.24
  -3   3  -1   10.58    2.26
  -3   3  -1   17.39    2.43
   3   3   1   21.39    2.12
   5  -3   1    2.74    1.84
   5  -3   1   -0.05    1.06
   5  -3   1    3.75    1.03
   5  -3   1    5.13    2.01
   5   3   1    2.09    1.12
  -5   3  -1    0.82    1.61
  -4  -4   1   40.88    4.13
   4  -4  -1   43.43    3.83
   4  -4  -1   44.38    2.91
  -4  -4   1   43.77    3.82
  -4  -4   1   45.20    4.80
  -4   4   1   54.90    4.75
  -2  -4   1   81.61    5.84
   2  -4  -1   81.94    5.87
   2  -4  -1   79.34    6.20
  -2  -4   1   84.10    6.35
  -2  -4   1   81.58    7.24
   2  -4  -1   75.63    5.12
   2  -4  -1   79.40    7.89
   2  -4  -1   87.89    6.86
   0  -4  -1   75.42    5.97
   0  -4   1   74.96    6.84
   0  -4  -1   81.59    6.86
   0  -4  -1   79.62    7.57
   0  -4   1   78.79    6.04
   0  -4   1   81.92    5.03
   0  -4   1   74.37    7.43
   0  -4  -1   87.30    5.05
   0  -4   1   75.94    6.33
   2  -4   1   41.25    4.92
  -2  -4  -1   45.47    3.29
  -2  -4  -1   48.04    3.69
  -2  -4  -1   46.43    5.16
   2  -4   1   39.50    4.69
  -2  -4  -1   45.10    3.36
  -2  -4  -1   50.69    4.56
   2  -4   1   44.02    4.18
  -2   4  -1   49.62    4.00
  -4  -4  -1   10.84    1.81
  -4  -4  -1   12.95    1.88
   4  -4   1    8.27    1.28
   4  -4   1    9.46    2.23
  -4   4  -1   12.66    2.44
  -2  -6   1   14.54    2.38
   2  -6  -1   15.36    2.83
   0  -6  -1   23.62    3.86
   0  -6   1   18.52    3.12
   0  -6  -1   19.50    2.39
   0  -6   1   20.59    3.46
  -2  -6  -1   10.26    1.93
   2  -6   1   12.60    2.12
   2  -6   1   16.59    1.83
   7  -1  -2    1.46    1.22
   7  -1  -2    1.44    1.43
  -7   1   2    1.06    1.46
   7   1  -2    2.66    1.05
   5  -1  -2    1.91    1.21
  -5  -1   2    0.24    1.70
   5  -1  -2    0.89    1.58
   5  -1  -2    1.67    0.72
  -5  -1   2    1.28    0.90
   5  -1  -2    0.37    0.97
  -5   1   2    1.60    1.26
  -5   1   2    2.28    1.57
   5   1  -2    1.91    1.27
   5   1  -2    2.44    1.45
  -5   1   2    0.07    1.47
   5   1  -2    2.28    1.21
  -3  -1   2    8.14    1.28
   3  -1  -2    6.44    0.94
   3  -1  -2    5.54    0.69
  -3   1   2    8.28    1.44
   3   1  -2    9.89    1.40
   1  -1  -2   70.91    4.05
   1  -1  -2   70.79    4.04
   1   1  -2   66.50    4.27
  -1   1   2   67.92    4.28
   1  -1   2   69.76    4.79
   1  -1   2   82.24    6.11
   1   1   2   71.90    4.55
  -1   1  -2   72.87    4.67
   3  -1   2   18.98    2.02
   3  -1   2   20.41    1.68
   3   1   2   29.25    2.25
  -3   1  -2   26.16    2.39
   5  -1   2    5.50    1.72
  -5  -1  -2    1.28    0.87
   5  -1   2    3.07    2.48
   5  -1   2   -0.02    0.80
   5  -1   2    0.67    0.71
  -5   1  -2   -0.12    1.65
   5   1   2    0.23    1.07
  -5   1  -2    1.56    1.28
   5   1   2    0.76    1.08
   5   1   2   -0.35    1.08
   7  -1   2   -0.34    1.16
   7  -1   2    0.28    1.22
   7   1   2    0.30    0.82
   7   1   2   -1.37    1.39
   6  -2  -2   13.44    1.64
   6  -2  -2   11.00    2.07
  -6   2   2   17.91    2.49
  -6   2   2   14.09    2.35
   6   2  -2   17.09    1.97
   4  -2  -2   58.00    5.33
   4  -2  -2   61.92    3.78
   4  -2  -2   61.98    4.55
  -4  -2   2   67.58    5.67
   4  -2  -2   63.70    4.93
  -4  -2   2   65.90    4.14
   4   2  -2   91.59    5.95
   4   2  -2   87.92    6.23
  -4   2   2   89.70    6.40
  -4   2   2   83.54    6.35
   2  -2  -2  121.47    9.25
  -2  -2   2  105.69    9.16
  -2  -2   2  118.66    9.26
  -2  -2   2  103.10    9.48
  -2   2   2  144.20    9.07
   2   2  -2  138.66    9.00
   0  -2   2   76.79    6.05
   0  -2  -2   79.63    6.71
   0  -2   2   70.31    6.15
   0  -2  -2   75.42    6.21
   0   2  -2   33.86    2.48
   2  -2   2    8.65    1.21
   2  -2   2    7.86    1.16
  -2  -2  -2   10.75    1.18
   2  -2   2   10.43    0.79
  -2  -2  -2   11.05    1.35
   2   2   2   11.10    1.22
  -2   2  -2   10.94    1.42
   4  -2   2    0.33    0.43
   4  -2   2    0.06    0.94
   4  -2   2    0.91    1.20
   4  -2   2    0.09    0.59
  -4  -2  -2    0.67    0.61
   4  -2   2    2.58    1.98
  -4   2  -2   -2.12    1.12
   4   2   2    0.20    0.80
   4   2   2   -0.18    0.89
  -4   2  -2    0.01    1.28
   6  -2   2   -0.22    1.15
   6  -2   2    3.94    1.66
   6  -2   2    0.35    0.68
   6  -2   2    0.98    1.79
   6   2   2    0.85    0.80
  -6   2  -2   -0.30    1.56
  -6   2  -2   -0.20    1.58
   5  -3  -2    1.19    0.67
  -5  -3   2   -1.21    1.59
  -5  -3   2   -0.57    0.81
   5  -3  -2    0.37    1.63
   5  -3  -2    1.02    1.20
  -5   3   2   -1.09    1.74
   5   3  -2    0.98    1.18
  -5   3   2    2.30    1.79
  -3  -3   2    7.47    1.33
   3  -3  -2   10.64    2.24
   3  -3  -2    8.39    1.83
  -3  -3   2   10.70    2.04
  -3  -3   2    4.17    1.35
   3  -3  -2    7.64    1.63
   3   3  -2   14.63    2.27
  -1  -3   2   16.43    1.95
   1  -3  -2   16.43    1.97
   1  -3  -2   12.60    1.97
   1   3  -2   16.95    1.78
   1  -3   2   15.61    2.08
   1  -3   2   16.90    1.83
   1  -3   2   21.44    1.80
  -1  -3  -2   20.06    2.11
  -1   3  -2   17.63    1.72
  -3  -3  -2    9.02    1.56
  -3  -3  -2   10.46    1.75
   3  -3   2    8.81    1.15
   3  -3   2    5.29    1.46
  -3  -3  -2    8.90    1.30
   3  -3   2    9.12    2.04
  -3   3  -2   11.66    2.11
  -3   3  -2    8.21    2.03
   3   3   2   13.59    1.78
   5  -3   2    2.56    1.84
   5  -3   2    0.71    0.74
   5  -3   2    1.19    1.89
   5  -3   2   -0.29    1.05
  -5   3  -2    2.33    1.67
   5   3   2    0.04    0.89
  -4  -4   2   26.33    3.03
   4  -4  -2   30.76    3.02
  -4  -4   2   31.48    3.27
   4  -4  -2   27.83    3.94
  -4  -4   2   31.91    3.96
  -4   4   2   41.82    4.05
  -2  -4   2   47.07    3.84
   2  -4  -2   51.53    3.75
   2  -4  -2   50.18    5.40
   2  -4  -2   46.14    4.02
  -2  -4   2   47.89    4.85
   2  -4  -2   53.32    4.47
   2  -4  -2   46.51    3.40
  -2  -4   2   51.20    4.18
   0  -4   2   26.84    3.18
   0  -4  -2   26.14    2.20
   0  -4   2   26.20    2.55
   0  -4   2   18.82    3.17
   0  -4   2   25.30    2.93
   0  -4  -2   25.71    2.56
   0  -4   2   24.18    2.18
   0  -4  -2   31.72    3.63
   0  -4  -2   33.17    3.07
   2  -4   2    6.83    2.67
  -2  -4  -2   10.88    3.09
  -2  -4  -2    8.51    1.24
  -2  -4  -2    5.99    1.41
   2  -4   2    8.47    2.48
  -2  -4  -2   10.30    1.12
  -2  -4  -2   12.21    2.26
  -2   4  -2    5.74    1.88
   4  -4   2    0.65    0.79
  -4  -4  -2    1.13    0.93
   4  -4   2    0.70    1.96
   4  -4   2    0.80    0.76
  -4  -4  -2    0.65    0.97
  -4   4  -2    0.22    1.44
  -2  -6   2   10.81    2.21
   2  -6  -2   13.63    1.42
   2  -6  -2   12.41    2.70
   0  -6  -2   14.77    3.49
   0  -6   2    6.48    2.62
   2  -6   2    2.50    0.96
  -2  -6  -2    2.79    1.14
   2  -6   2    2.21    1.50
   7  -1  -3    2.23    1.47
   7  -1  -3    1.58    1.17
  -7   1   3    0.55    1.39
   7   1  -3    1.39    1.03
   5  -1  -3    0.42    0.94
   5  -1  -3    0.82    0.66
   5  -1  -3    0.86    1.42
   5  -1  -3    4.04    1.42
  -5  -1   3   -0.24    0.78
  -5  -1   3    0.65    1.64
   5   1  -3    2.53    1.44
   5   1  -3    0.96    1.12
  -5   1   3    0.24    1.48
   5   1  -3    0.66    1.04
  -5   1   3    0.47    1.24
  -5   1   3    1.88    1.56
   3  -1  -3   17.12    1.30
   3  -1  -3   15.85    1.49
  -3  -1   3   19.26    1.81
  -3   1   3   21.80    2.10
   3   1  -3   25.90    2.16
   1  -1  -3   26.64    2.37
  -1  -1   3   26.49    2.09
  -1   1   3   54.16    3.55
   1   1  -3   55.41    3.59
  -1  -1  -3   31.60    2.92
   1  -1   3   38.27    2.91
   1  -1   3   32.43    2.28
  -1   1  -3   32.46    2.34
   1   1   3   31.06    2.11
   3  -1   3    2.84    0.86
   3  -1   3    4.97    0.96
  -3  -1  -3    3.39    0.98
  -3   1  -3    4.82    1.33
   3   1   3    4.41    1.07
   5  -1   3    0.94    1.47
   5  -1   3    0.29    0.86
   5  -1   3    1.19    2.49
  -5  -1  -3    0.66    0.82
   5  -1   3    1.00    0.72
   5   1   3    0.95    1.03
  -5   1  -3    0.22    1.72
   5   1   3    1.23    1.10
  -5   1  -3    0.00    1.79
  -5   1  -3    1.08    1.43
   5   1   3    1.67    1.20
   7  -1   3    1.60    1.40
   7  -1   3    1.97    1.41
   7   1   3    0.63    1.59
   7   1   3    1.78    0.90
   6  -2  -3    7.11    1.81
   6  -2  -3    8.69    1.39
  -6   2   3   11.97    2.19
   6   2  -3   12.42    1.86
  -6   2   3   12.92    2.31
  -4  -2   3   32.73    3.28
   4  -2  -3   31.77    2.74
   4  -2  -3   26.88    2.91
   4  -2  -3   30.66    2.09
  -4  -2   3   33.05    2.32
   4  -2  -3   27.09    2.75
  -4   2   3   48.59    4.08
   4   2  -3   44.02    3.51
  -4   2   3   41.15    3.81
   4   2  -3   45.35    3.74
  -2  -2   3   16.67    1.71
   2  -2  -3    8.43    2.71
   2  -2  -3   15.64    1.55
  -2  -2   3   11.97    1.97
  -2  -2   3   13.99    1.64
   2   2  -3   20.51    1.88
  -2   2   3   18.70    1.86
   0  -2   3    0.64    0.41
   0  -2  -3    0.39    0.70
   0  -2  -3    0.45    0.66
   0  -2   3    0.42    0.51
   0   2  -3   -0.09    0.76
  -2  -2  -3   14.96    1.58
  -2  -2  -3   14.31    1.61
   2  -2   3   15.22    1.05
   2  -2   3   13.68    1.58
   2  -2   3   13.10    1.41
   2   2   3   15.28    1.40
  -2   2  -3   15.82    1.70
   4  -2   3   13.05    1.31
   4  -2   3   11.60    2.63
   4  -2   3   16.77    2.05
  -4  -2  -3   12.77    1.26
   4  -2   3   10.33    1.90
   4  -2   3   12.20    1.18
  -4   2  -3   11.50    2.29
   4   2   3   19.22    1.94
   4   2   3   14.05    1.67
  -4   2  -3   15.47    2.28
   6  -2   3    1.73    1.20
   6  -2   3    2.79    1.93
   6  -2   3    1.70    0.79
   6  -2   3    5.13    1.63
   6   2   3    0.79    0.78
  -6   2  -3    0.03    1.57
  -6   2  -3   -0.20    1.54
  -5  -3   3    0.65    0.89
   5  -3  -3    0.45    1.68
   5  -3  -3    0.09    1.96
   5  -3  -3    1.78    1.17
  -5  -3   3   -0.98    1.59
   5   3  -3    0.09    1.15
  -5   3   3    1.44    1.93
  -5   3   3    1.42    1.83
  -3  -3   3    5.85    1.85
   3  -3  -3    6.69    1.14
  -3  -3   3    5.22    1.06
   3  -3  -3    7.23    0.96
   3  -3  -3    6.76    2.43
  -3  -3   3   10.69    2.22
  -3  -3   3    6.94    1.57
  -3  -3   3    6.24    1.47
   3  -3  -3   10.07    1.80
   3  -3  -3    7.44    1.63
  -3   3   3   12.29    2.10
   3   3  -3   12.45    2.35
  -1  -3   3   14.17    1.45
  -1  -3   3   15.74    1.76
  -1  -3   3   14.38    1.92
   1  -3  -3   16.88    2.18
   1  -3  -3   12.84    2.03
   1   3  -3   15.61    1.79
  -1  -3  -3   13.07    1.61
   1  -3   3    8.06    1.22
   1  -3   3    9.82    1.21
  -1   3  -3    6.53    1.40
  -3  -3  -3    0.83    0.88
  -3  -3  -3    1.23    0.96
   3  -3   3    2.56    1.92
   3  -3   3   -0.24    1.07
  -3  -3  -3    1.38    0.70
   3  -3   3    1.35    0.67
  -3   3  -3    2.68    1.47
   3   3   3    5.97    1.46
  -3   3  -3    0.69    1.43
   5  -3   3    0.64    1.16
   5  -3   3    0.61    1.86
   5  -3   3    1.33    0.85
   5  -3   3    4.81    2.00
  -5   3  -3    0.96    1.63
   5   3   3    0.24    0.85
   4  -4  -3   14.33    2.89
   4  -4  -3   13.39    1.93
  -4  -4   3   12.36    2.28
  -4   4   3   14.90    2.68
   2  -4  -3   11.10    1.77
   2  -4  -3    8.16    1.42
  -2  -4   3    9.12    1.75
   2  -4  -3   10.51    1.85
  -2  -4   3   11.04    2.45
   2  -4  -3   11.59    2.89
  -2  -4   3    9.13    1.60
   2  -4  -3   10.80    1.43
   0  -4  -3   -0.51    0.69
   0  -4  -3    5.60    1.89
   0  -4   3    0.20    0.95
   0  -4  -3    2.30    1.89
   0  -4   3    1.67    1.30
   0  -4   3    2.80    2.36
   0  -4   3    1.77    1.24
  -2  -4  -3    4.47    0.91
  -2  -4  -3    2.03    0.96
   2  -4   3    5.57    2.50
  -2  -4  -3    5.67    2.72
  -2  -4  -3    3.71    0.93
  -2  -4  -3    5.92    2.03
   2  -4   3    2.44    2.38
  -2   4  -3    3.73    1.53
   4  -4   3    6.76    1.20
  -4  -4  -3    5.36    1.64
  -4  -4  -3    6.97    1.54
   4  -4   3    5.84    2.13
   4  -4   3    3.26    1.17
  -4   4  -3    7.19    2.07
  -2  -6   3    1.82    1.67
   2  -6  -3    7.80    2.55
   0  -6  -3    1.32    0.94
   0  -6  -3    0.49    2.63
   0  -6   3    0.25    1.90
   2  -6   3    0.91    1.43
   2  -6   3    0.40    0.94
   7  -1  -4   -0.99    1.33
   7  -1  -4   -0.12    1.03
   7   1  -4   -0.63    1.08
  -7   1   4    0.63    1.39
  -5  -1   4    2.04    1.68
   5  -1  -4    1.08    1.11
  -5  -1   4    1.81    0.91
   5  -1  -4    0.76    0.66
   5  -1  -4    0.01    0.89
   5   1  -4    0.69    1.08
  -5   1   4    1.01    1.61
   5   1  -4    1.27    1.02
   5   1  -4    2.58    1.58
  -5   1   4    1.15    1.64
  -3  -1   4   11.95    1.68
   3  -1  -4   13.59    1.11
  -3   1   4   13.25    1.61
   3   1  -4   16.02    1.73
   1  -1  -4    7.79    0.64
  -1  -1   4    6.78    1.21
  -1   1   4    9.48    0.96
   1   1  -4   12.11    1.16
  -1  -1  -4    0.83    0.56
   1  -1   4    0.36    0.45
   1  -1   4    1.02    0.48
  -1   1  -4    0.10    0.71
   1   1   4    0.62    0.47
   3  -1   4    4.03    1.01
   3  -1   4    3.72    0.94
  -3  -1  -4    3.68    0.99
  -3   1  -4    4.16    1.35
   3   1   4    4.01    1.00
   5  -1   4    7.14    2.81
   5  -1   4    3.35    0.97
   5  -1   4    4.01    1.27
  -5  -1  -4    3.33    1.07
   5  -1   4    3.83    1.95
  -5   1  -4    4.33    2.27
   5   1   4    3.78    1.26
   5   1   4    3.53    1.28
   5   1   4    3.67    1.36
   6  -2  -4    5.20    1.76
   6  -2  -4   -0.09    2.04
   6  -2  -4    2.18    1.35
  -6   2   4    5.74    2.13
  -6   2   4    3.99    1.79
   6   2  -4    4.46    1.47
  -4  -2   4    1.90    1.36
  -4  -2   4    2.13    1.22
  -4  -2   4    1.90    0.76
   4  -2  -4    0.78    0.99
   4  -2  -4    1.21    1.04
   4  -2  -4    1.14    0.55
   4   2  -4    0.29    1.32
  -4   2   4    2.67    1.70
  -4   2   4    2.39    1.45
  -4   2   4    3.15    1.69
   4   2  -4    1.64    1.19
   2  -2  -4   15.13    1.60
   2  -2  -4   13.23    2.88
  -2  -2   4   15.21    1.72
   2   2  -4   22.06    1.96
  -2   2   4   16.49    1.89
   0  -2   4   98.85    7.67
   0  -2   4  102.34    5.42
   0  -2  -4   98.60    8.60
   0  -2  -4   85.40    7.77
   0  -2   4   89.95    7.73
   0   2  -4   36.99    2.82
   2  -2   4   93.02    5.70
   2  -2   4   86.72    7.68
   2  -2   4  100.78    5.49
  -2  -2  -4   90.61    7.67
  -2  -2  -4   95.73    7.82
   2   2   4   88.51    5.81
  -2   2  -4   92.62    6.14
   4  -2   4   46.47    4.06
   4  -2   4   43.41    2.80
   4  -2   4   36.04    2.79
   4  -2   4   46.78    4.18
  -4   2  -4   44.39    3.94
   4   2   4   34.65    2.85
  -4   2  -4   40.49    3.59
   4   2   4   38.43    3.08
   6  -2   4   12.66    1.91
   6  -2   4    9.80    1.35
   6  -2   4   12.50    2.07
  -6   2  -4    1.54    1.75
  -6   2  -4    5.18    1.74
   6   2   4    7.70    1.18
   5  -3  -4    0.94    1.05
   5  -3  -4    2.23    1.71
   5  -3  -4    2.88    2.20
  -5  -3   4    0.45    1.66
  -5   3   4    1.08    2.01
   5   3  -4    2.40    1.46
  -5   3   4    3.11    2.00
   3  -3  -4    5.62    1.51
   3  -3  -4    4.95    2.16
  -3  -3   4    4.17    1.41
  -3  -3   4    1.29    1.48
   3  -3  -4    4.09    1.34
  -3  -3   4    4.23    1.62
  -3  -3   4    3.19    0.94
   3  -3  -4    4.79    0.81
  -3  -3   4    6.09    2.31
   3   3  -4    9.09    2.42
   3   3  -4    7.62    1.84
  -3   3   4   10.31    2.01
  -1  -3   4    3.66    1.35
   1  -3  -4    3.52    1.28
  -1  -3   4    2.79    0.72
  -1  -3   4    3.27    1.21
   1  -3  -4    6.04    1.82
   1   3  -4    3.80    1.28
   1  -3   4    0.49    0.52
  -1  -3  -4    0.12    0.85
   1  -3   4   -0.02    0.53
   1  -3   4    0.61    0.69
  -1  -3  -4   -0.08    0.63
  -1   3  -4    0.70    1.04
  -3  -3  -4    3.01    1.19
   3  -3   4    3.29    0.91
   3  -3   4    3.87    1.33
  -3  -3  -4    3.98    1.17
  -3  -3  -4    3.49    1.27
   3  -3   4    6.17    2.11
  -3   3  -4    2.73    1.60
  -3   3  -4    4.68    1.74
   5  -3   4    3.00    1.32
   5  -3   4    6.70    2.08
   5  -3   4    6.68    1.93
   5  -3   4    4.10    1.08
  -5   3  -4    3.02    1.93
   5   3   4    2.43    0.96
   4  -4  -4    0.39    1.17
   4  -4  -4    6.73    2.98
   4   4  -4    2.00    1.62
  -4   4   4    2.78    1.88
  -4   4   4    0.92    1.70
   2  -4  -4    9.33    3.00
  -2  -4   4   10.41    2.36
   2  -4  -4    5.00    1.35
   2  -4  -4    5.07    1.46
   2  -4  -4    3.05    1.00
   2  -4  -4    5.67    1.46
  -2  -4   4    5.45    1.55
  -2  -4   4    7.39    1.81
   2   4  -4    5.41    2.00
   0  -4  -4   14.24    3.41
   0  -4   4   13.01    2.17
   0  -4   4   15.10    2.49
   0  -4   4   16.36    2.90
   0  -4  -4   12.81    1.56
   0  -4   4   12.70    2.17
   0  -4  -4   12.46    2.45
   0   4  -4    6.47    1.63
  -2  -4  -4   21.57    2.24
   2  -4   4   27.81    3.24
  -2  -4  -4   26.43    2.36
  -2  -4  -4   24.85    2.05
  -2  -4  -4   27.77    3.09
   2  -4   4   24.91    4.24
   2  -4   4   23.76    2.47
  -2   4  -4   24.24    2.66
   4  -4   4   14.68    1.57
   4  -4   4   11.17    1.85
  -4  -4  -4   14.83    1.95
  -4  -4  -4   13.05    2.04
   4  -4   4   15.38    2.42
  -4   4  -4   14.86    2.42
  -2  -6   4    0.92    1.60
   2  -6  -4    2.52    1.84
   0  -6  -4    1.41    0.86
   0  -6  -4    2.60    2.84
   0  -6   4    2.16    1.97
   2  -6   4    2.28    1.01
   2  -6   4    1.49    1.59
   7  -1  -5    5.25    1.21
  -7   1   5    0.87    1.41
   5  -1  -5    3.24    1.26
   5  -1  -5    3.04    0.93
  -5  -1   5    3.88    1.78
   5  -1  -5    4.76    1.58
  -5  -1   5    1.82    1.49
  -5  -1   5    2.15    0.99
   5   1  -5    2.11    1.26
   5   1  -5    2.31    1.17
  -5   1   5    4.45    2.11
  -5   1   5    2.67    1.57
  -5   1   5    1.87    1.70
   5   1  -5    6.06    2.01
  -3  -1   5    2.19    1.17
   3  -1  -5    1.63    0.53
   3   1  -5    2.47    1.01
  -3   1   5    1.41    0.90
   1  -1  -5    8.16    0.65
  -1  -1   5    5.24    1.22
   1  -1  -5    8.28    0.69
   1   1  -5    6.59    1.11
  -1   1   5    6.49    0.86
   1   1  -5    6.90    1.10
   1  -1   5   39.51    3.29
  -1  -1  -5   36.22    3.24
   1  -1   5   37.58    2.63
   1   1   5   30.89    2.30
   3  -1   5   26.71    2.74
   3  -1   5   29.57    2.32
  -3  -1  -5   24.26    2.83
  -3  -1  -5   32.10    2.17
  -3   1  -5   31.27    2.77
   3   1   5   28.84    2.31
   5  -1   5    6.25    1.43
   5  -1   5    9.94    2.65
  -5  -1  -5    6.34    1.33
   5  -1   5    6.24    1.16
   5  -1   5   10.71    2.34
  -5   1  -5    5.75    2.41
   5   1   5    5.91    1.45
   5   1   5    7.94    1.68
   5   1   5    5.86    1.44
   6  -2  -5    0.09    1.03
  -6  -2   5   -0.01    1.36
   6  -2  -5   -1.74    2.18
   6  -2  -5    1.08    1.34
  -6   2   5   -0.74    1.44
  -6   2   5    0.20    1.86
   6   2  -5    1.31    1.26
   4  -2  -5   11.75    1.72
  -4  -2   5   16.84    2.43
  -4  -2   5    6.53    1.99
   4  -2  -5   11.53    1.76
  -4  -2   5   12.46    1.40
  -4   2   5   21.26    2.64
   4   2  -5   21.03    2.57
  -4   2   5   17.70    2.47
  -4   2   5   16.22    2.63
   4   2  -5   15.08    2.11
   2  -2  -5   74.61    7.35
   2   2  -5   90.35    6.14
  -2   2   5   92.06    6.05
   0  -2  -5  146.16   13.47
   0  -2   5  147.78   12.19
   0  -2  -5  147.73   11.57
   0  -2   5  160.86   12.12
   0  -2   5  160.11    8.65
   0  -2  -5  145.69   12.26
   0   2  -5   93.20    6.21
   2  -2   5  109.86    8.01
  -2  -2  -5   81.99    7.55
  -2   2  -5  100.76    6.86
   2   2   5   99.14    6.37
   4  -2   5   36.72    2.80
  -4  -2  -5   37.09    4.34
   4  -2   5   48.65    4.08
   4  -2   5   46.80    4.08
   4  -2   5   39.96    2.74
  -4   2  -5   35.58    3.76
   4   2   5   35.48    2.83
  -4   2  -5   34.20    3.49
   4   2   5   30.94    2.57
   6  -2   5    7.82    1.49
   6  -2   5    8.50    1.24
   6  -2   5    8.04    1.68
   6  -2   5    3.64    1.31
  -6   2  -5    3.63    1.73
   6   2   5    5.29    1.04
   5  -3  -5    1.44    1.52
  -5  -3   5    1.55    1.54
  -5   3   5    0.65    1.81
   5   3  -5    1.96    1.48
  -5   3   5    0.83    2.06
  -3  -3   5    0.99    1.83
   3  -3  -5    0.51    1.19
  -3  -3   5   -0.31    1.27
   3  -3  -5    0.55    0.76
   3  -3  -5    0.25    2.10
  -3  -3   5   -0.21    0.48
   3  -3  -5    0.11    1.15
  -3  -3   5   -1.52    1.37
   3   3  -5    0.24    1.67
  -3   3   5    1.09    1.29
   3   3  -5    1.86    1.48
   1  -3  -5    2.99    0.90
   1  -3  -5    4.54    1.80
  -1  -3   5    2.34    0.84
  -1  -3   5    2.70    1.29
   1  -3  -5    6.30    2.10
  -1  -3   5    4.35    1.47
  -1  -3   5    2.64    0.58
   1   3  -5    2.04    1.31
  -1  -3  -5   12.32    1.73
   1  -3   5   11.89    1.64
  -1  -3  -5   11.89    1.80
   1  -3   5   13.40    1.69
   1  -3   5   11.81    1.53
  -1   3  -5    4.00    1.41
   3  -3   5   16.51    2.45
   3  -3   5   14.31    2.15
  -3  -3  -5   15.34    1.79
  -3  -3  -5   17.74    2.11
   3  -3   5   16.41    1.56
  -3   3  -5   13.40    2.61
  -3   3  -5   15.63    2.50
   5  -3   5    6.92    1.77
   5  -3   5    6.76    1.54
   5  -3   5    7.45    1.27
   5  -3   5    5.92    1.92
  -5   3  -5    4.64    2.18
   5   3   5    3.76    1.10
   4  -4  -5    4.49    1.29
   4  -4  -5    7.94    3.07
   4   4  -5    7.72    2.23
  -4   4   5    7.40    2.21
   2  -4  -5   25.06    2.48
  -2  -4   5   29.22    2.92
  -2  -4   5   25.35    2.67
  -2  -4   5   27.03    3.41
   2  -4  -5   23.57    4.26
   2  -4  -5   22.60    2.18
   2  -4  -5   22.07    2.14
   2   4  -5   19.94    3.06
   0  -4  -5   42.67    3.07
   0  -4  -5   39.67    5.29
   0  -4   5   38.41    4.21
   0  -4  -5   44.45    4.36
   0   4  -5   30.37    2.97
  -2  -4  -5   38.72    3.07
  -2  -4  -5   38.51    2.98
  -2  -4  -5   46.89    4.11
   2  -4   5   44.28    5.09
  -2  -4  -5   31.39    5.12
   2  -4   5   35.68    3.67
   2  -4   5   43.64    3.88
  -2   4  -5   20.05    2.90
  -2   4  -5   32.19    2.94
   4  -4   5   15.81    2.33
  -4  -4  -5   15.94    1.98
   4  -4   5   17.79    1.70
   4  -4   5   12.64    2.06
  -4  -4  -5   14.78    2.18
  -4   4  -5   10.69    2.31
  -2  -6   5    3.26    1.77
   2  -6  -5    3.88    1.21
   2  -6  -5    7.68    2.78
   0  -6  -5    7.95    1.42
   0  -6   5    9.47    2.37
   0  -6  -5    3.58    2.87
   2  -6   5    9.24    1.87
   2  -6   5    5.88    2.06
  -7   1   6    1.51    1.48
  -5  -1   6    1.31    1.79
   5  -1  -6    1.69    1.23
  -5  -1   6    1.41    1.69
   5  -1  -6    2.34    1.47
  -5  -1   6    1.47    0.93
   5  -1  -6    0.94    0.69
   5   1  -6    1.22    1.25
   5   1  -6    0.76    1.20
  -5   1   6    0.92    2.17
  -5   1   6    1.98    1.51
   5   1  -6    2.21    1.73
  -5   1   6    2.45    1.74
   3  -1  -6    6.64    0.85
  -3  -1   6    4.43    1.43
   3  -1  -6    5.09    0.91
   3   1  -6    6.39    1.51
  -3   1   6    7.84    1.38
  -1  -1   6   49.55    3.74
   1  -1  -6   54.97    3.15
   1  -1  -6   54.62    3.14
   1   1  -6   48.09    3.39
  -1   1   6   46.39    3.21
   1  -1   6  103.24    7.89
  -1  -1  -6   90.96    7.50
  -1  -1  -6   91.21    7.82
   1  -1   6   98.46    6.25
   1   1   6   50.52    3.95
  -1   1  -6   65.03    4.14
   3  -1   6   43.64    4.24
   3  -1   6   52.39    3.51
  -3  -1  -6   41.93    4.14
  -3  -1  -6   49.74    3.27
  -3   1  -6   51.19    4.02
   3   1   6   47.20    3.49
   5  -1   6   16.27    2.66
   5  -1   6   11.43    1.75
   5  -1   6   12.46    1.40
  -5  -1  -6    8.08    1.44
   5   1   6    9.28    1.69
  -5   1  -6    6.25    2.44
   5   1   6    9.40    1.59
  -6  -2   6    4.59    1.57
   6  -2  -6    5.05    1.50
   6  -2  -6    2.20    2.31
  -6  -2   6    3.46    0.91
  -6   2   6    7.21    2.32
  -6   2   6    4.10    1.88
   6   2  -6    4.88    1.61
   4  -2  -6   38.24    3.13
  -4  -2   6   45.70    4.31
  -4  -2   6   28.94    3.32
  -4  -2   6   38.79    2.88
   4  -2  -6   36.51    3.54
  -4   2   6   51.15    4.47
  -4   2   6   55.33    4.66
  -4   2   6   61.34    4.52
   4   2  -6   51.80    4.25
   4   2  -6   55.10    4.56
   2  -2  -6  128.90   11.85
  -2   2   6  155.53    9.83
   2   2  -6  151.05    9.97
   0  -2  -6  146.72   11.60
   0  -2   6  147.47   11.49
   0  -2   6  140.74   11.50
   0  -2  -6  119.41   12.70
   0  -2   6  150.99    8.24
   0  -2  -6  146.11   10.98
   0   2   6   58.75    3.88
  -2  -2  -6   72.10    6.54
  -2  -2  -6   92.44    6.83
   2  -2   6   77.37    6.84
  -2   2  -6   53.12    4.61
   2   2   6   66.18    4.06
  -4  -2  -6   17.31    2.77
   4  -2   6   25.65    3.06
   4  -2   6   24.19    1.89
   4  -2   6   30.37    3.01
   4  -2   6   20.94    1.89
   4   2   6   18.59    2.02
  -4   2  -6   18.24    3.12
   4   2   6   19.22    1.80
  -4   2  -6   18.31    2.89
   6  -2   6    3.24    1.00
   6  -2   6    3.55    1.31
   6  -2   6    1.13    1.04
   6  -2   6    2.88    1.38
   6   2   6    2.34    0.89
  -5  -3   6    1.40    1.45
   5  -3  -6   -0.67    2.36
   5  -3  -6    0.02    1.24
   5   3  -6    0.00    1.40
  -5   3   6   -0.50    1.61
  -5   3   6    1.23    2.00
   3  -3  -6    2.94    1.33
  -3  -3   6    5.14    1.64
  -3  -3   6    4.31    0.83
  -3  -3   6    7.86    2.85
   3  -3  -6    5.57    2.61
   3  -3  -6    3.37    0.95
   3   3  -6    3.50    2.29
  -3   3   6    9.18    2.03
   3   3  -6    5.73    1.80
  -1  -3   6   21.73    1.61
   1  -3  -6   21.79    3.46
  -1  -3   6   22.01    2.54
  -1  -3   6   19.30    2.82
   1  -3  -6   19.75    1.72
   1  -3  -6   18.99    2.78
   1   3  -6    8.55    2.14
   1  -3   6   37.25    2.29
   1  -3   6   32.15    3.32
  -1  -3  -6   32.69    2.76
   1  -3   6   33.99    3.09
  -1  -3  -6   38.55    3.51
  -1  -3  -6   37.75    3.39
  -1   3  -6   24.68    2.64
   3  -3   6   28.93    2.97
   3  -3   6   26.93    2.10
  -3  -3  -6   26.06    2.47
  -3  -3  -6   25.84    2.91
   3  -3   6   25.49    2.68
  -3   3  -6   18.67    2.80
  -3   3  -6   12.55    2.75
   5  -3   6    4.92    1.45
   5  -3   6    5.65    1.69
   5  -3   6    7.31    1.25
   5  -3   6    9.27    1.77
  -5   3  -6    0.50    1.74
   5   3   6    4.03    1.09
   4  -4  -6   16.04    3.46
   4   4  -6   23.35    3.16
  -2  -4   6   34.73    3.49
  -2  -4   6   35.81    3.49
   2  -4  -6   37.46    5.27
  -2  -4   6   40.72    4.46
  -2  -4   6   48.36    4.09
   2  -4  -6   38.57    2.95
  -2  -4   6   34.15    3.29
   2  -4  -6   34.05    2.80
   2  -4  -6   36.63    3.24
   2   4  -6   18.17    3.23
   0  -4   6   48.03    4.28
   0  -4  -6   46.52    5.73
   0  -4   6   40.29    4.73
   0  -4  -6   53.90    3.49
   0  -4  -6   54.45    4.90
   0  -4   6   44.38    4.28
   0   4  -6   41.10    3.63
   2  -4   6   31.72    3.30
  -2  -4  -6   33.59    4.72
   2  -4   6   28.15    3.23
  -2  -4  -6   35.65    3.73
  -2  -4  -6   32.27    2.78
  -2  -4  -6   33.71    2.62
  -2   4  -6   15.79    2.42
  -2   4  -6    8.07    2.31
   4  -4   6   10.65    1.45
  -4  -4  -6   10.77    1.83
  -4  -4  -6    9.19    1.93
   4  -4   6    9.67    1.88
  -4   4  -6    2.77    1.77
  -2  -6   6    5.44    2.09
   2  -6  -6    8.06    1.35
   0  -6   6   11.54    2.33
   0  -6  -6    8.85    3.46
   0  -6  -6    9.35    1.59
   2  -6   6   14.03    2.12
  -5  -1   7   -0.17    0.88
  -5  -1   7    1.25    1.77
  -5  -1   7   -1.70    2.03
   5  -1  -7    0.37    0.58
   5  -1  -7    2.18    1.28
  -5   1   7    1.00    2.15
  -5   1   7    1.91    1.59
   5   1  -7    1.65    1.21
  -5   1   7    0.96    1.66
   5   1  -7   -2.20    1.60
  -3  -1   7   12.91    2.22
   3  -1  -7   15.98    1.32
   3  -1  -7   15.35    1.72
  -3  -1   7    8.48    2.00
   3  -1  -7   20.37    1.63
   3  -1  -7   15.36    1.44
   3   1  -7   24.72    2.34
  -3   1   7   21.19    2.21
   1  -1  -7  113.64    5.94
   1  -1  -7  104.93    8.16
   1  -1  -7   96.80    9.26
  -1  -1   7  103.90    6.78
   1  -1  -7   96.56    5.92
  -1   1   7   79.47    5.02
   1   1  -7   70.76    5.15
   1  -1   7   94.81    6.20
  -1  -1  -7   81.25    8.00
  -1  -1  -7  100.33    7.34
  -1  -1  -7   92.71    7.68
   1  -1   7   94.30    7.76
  -1   1  -7   93.58    5.78
   1   1   7   75.74    5.65
   3  -1   7   42.20    4.14
  -3  -1  -7   42.20    3.90
   3   1   7   44.19    3.17
  -3   1  -7   35.95    3.65
   5  -1   7   10.83    1.43
   5  -1   7   11.82    2.81
   5  -1   7    7.07    1.67
   5  -1   7   12.57    2.43
   5   1   7    7.58    1.56
   5   1   7    7.25    1.57
  -5   1  -7    6.45    1.51
  -6  -2   7    7.90    1.14
   6  -2  -7    8.78    2.91
  -6  -2   7   13.06    2.00
   6  -2  -7    9.33    1.54
   6   2  -7   13.99    2.12
  -6   2   7   13.51    2.63
  -6   2   7   10.03    2.20
  -4  -2   7   54.25    5.03
  -4  -2   7   38.20    3.68
   4  -2  -7   41.47    3.35
   4  -2  -7   39.54    3.96
  -4  -2   7   46.14    3.31
  -4   2   7   64.97    4.95
  -4   2   7   56.88    4.96
   4   2  -7   65.84    4.87
  -4   2   7   62.90    5.09
   4   2  -7   59.26    5.09
  -2  -2   7   83.00    5.37
  -2  -2   7   94.44    5.85
   2  -2  -7   94.65    5.45
   2  -2  -7   80.65    6.70
   2  -2  -7   96.95    8.60
  -2   2   7  110.21    7.29
   2   2  -7  111.53    7.51
   0  -2   7   62.43    5.52
   0  -2  -7   64.70    5.58
   0  -2  -7   60.13    5.29
   0  -2  -7   68.87    6.32
   0   2  -7   61.06    4.13
   0   2   7   51.09    3.75
  -2  -2  -7   23.22    2.38
   2  -2   7   19.53    2.19
  -2  -2  -7   20.30    2.28
  -2  -2  -7   15.45    2.10
   2  -2   7   15.71    2.12
  -2   2  -7    9.65    2.14
   2   2   7   16.25    1.43
   4  -2   7   10.75    2.47
   4  -2   7   10.33    2.31
   4  -2   7    8.61    1.28
   4   2   7    7.13    1.22
  -4   2  -7    4.63    2.18
  -4   2  -7    2.45    2.10
   4   2   7    7.24    1.56
   6  -2   7    1.59    0.88
   6  -2   7   -0.20    1.19
   6  -2   7    1.02    0.99
   6  -2   7    0.84    0.99
   6   2   7    0.24    0.71
   5  -3  -7    1.98    2.29
  -5  -3   7    6.41    1.87
   5   3  -7    0.92    1.64
  -5   3   7    1.28    1.75
  -5   3   7    2.55    2.19
  -3  -3   7   15.29    1.50
  -3  -3   7   17.49    3.51
  -3  -3   7   17.40    2.32
   3  -3  -7   16.46    3.58
   3  -3  -7   16.84    2.05
   3   3  -7   19.86    3.50
  -3   3   7   23.60    2.74
   3   3  -7   17.61    2.72
  -1  -3   7   38.91    3.83
   1  -3  -7   35.62    2.77
   1  -3  -7   40.27    2.89
   1  -3  -7   39.92    4.45
   1  -3  -7   32.79    4.07
  -1  -3   7   37.89    2.69
   1   3  -7   15.37    2.53
  -1  -3  -7   45.74    4.22
  -1  -3  -7   47.19    3.28
  -1  -3  -7   42.99    3.43
  -1  -3  -7   45.43    4.33
   1  -3   7   44.70    3.84
   1  -3   7   45.15    2.83
  -1   3  -7   37.29    3.32
   3  -3   7   22.25    2.56
  -3  -3  -7   22.71    2.82
   3  -3   7   24.37    1.99
  -3  -3  -7   22.73    2.37
   3  -3   7   22.96    2.63
  -3   3  -7    7.28    2.41
  -3   3  -7    9.08    2.58
   5  -3   7    3.91    1.41
   5  -3   7    2.65    1.16
   5  -3   7    5.75    1.22
  -5   3  -7    3.07    1.88
   5   3   7    2.13    0.90
   4  -4  -7   25.75    2.64
   4  -4  -7   20.30    3.83
   4   4  -7   23.21    3.15
  -2  -4   7   28.56    3.27
  -2  -4   7   26.45    2.92
   2  -4  -7   32.17    2.59
  -2  -4   7   39.21    3.86
  -2  -4   7   31.96    4.26
   2  -4  -7   30.98    2.54
   2  -4  -7   36.36    4.93
   2   4  -7   20.69    3.32
   2   4  -7   12.53    3.34
   0  -4  -7   38.24    3.93
   0  -4   7   28.40    3.34
   0  -4  -7   33.88    2.65
   0  -4   7   29.09    3.98
   0  -4   7   30.68    3.28
   0  -4   7   35.67    2.32
   0  -4  -7   34.98    4.52
   0   4  -7   28.66    3.07
   0   4  -7   28.78    3.20
  -2  -4  -7   17.49    2.86
  -2  -4  -7   16.78    1.84
   2  -4   7   12.03    2.07
  -2  -4  -7   16.38    2.06
  -2   4  -7    4.01    1.90
  -2   4  -7    7.25    2.15
   4  -4   7    2.60    1.02
  -4  -4  -7    1.29    0.86
  -4  -4  -7    1.36    1.39
   4  -4   7    3.41    1.50
  -4   4  -7    1.05    1.57
  -2  -6   7    5.59    1.92
   2  -6  -7    6.34    1.37
   2  -6  -7    9.01    2.37
   0  -6   7    8.71    2.10
   0  -6  -7    9.97    2.88
   0  -6  -7    8.41    1.60
   5  -1  -8    1.54    1.48
   5  -1  -8    2.33    1.42
  -5  -1   8    3.41    1.26
   5  -1  -8    5.36    1.75
  -5  -1   8    3.78    2.01
  -5   1   8    3.99    1.88
  -5   1   8    1.90    2.33
   5   1  -8    3.67    1.53
  -3  -1   8   20.57    2.39
  -3  -1   8   16.81    2.40
   3  -1  -8   23.02    2.14
  -3   1   8   40.36    3.20
   3   1  -8   40.74    3.30
   3   1  -8   36.98    3.26
  -3   1   8   32.80    3.27
   1  -1  -8   65.74    6.37
   1  -1  -8   81.50    7.25
  -1  -1   8   89.21    5.37
  -1   1   8   45.70    3.05
   1   1  -8   33.49    3.15
  -1  -1  -8   49.61    4.66
   1  -1   8   40.90    3.46
  -1  -1  -8   52.66    3.94
   1  -1   8   39.08    4.17
   1   1   8   56.05    3.89
  -1   1  -8   50.61    3.87
  -3  -1  -8   19.58    2.40
   3  -1   8   21.73    2.31
   3  -1   8   17.81    1.71
   3  -1   8   20.28    2.21
   3   1   8   16.40    2.02
   3   1   8   15.83    1.90
  -3   1  -8   17.14    2.94
  -3   1  -8   11.99    2.39
   5  -1   8    2.67    1.84
   5  -1   8    0.32    0.90
   5  -1   8    2.08    1.21
  -5  -1  -8    1.54    0.66
   5  -1   8    3.15    2.63
  -5   1  -8    0.79    1.09
   5   1   8    2.11    1.21
   5   1   8    5.79    1.59
  -6  -2   8   19.14    2.20
   6  -2  -8   13.67    2.81
  -6   2   8    9.28    2.22
   6   2  -8   15.48    2.12
  -6   2   8   16.39    2.61
   4  -2  -8   39.16    2.92
  -4  -2   8   41.11    4.82
  -4  -2   8   38.72    3.47
   4  -2  -8   30.39    3.46
  -4  -2   8   38.72    3.07
   4   2  -8   56.15    4.40
   4   2  -8   53.61    4.75
  -4   2   8   48.03    4.42
   4   2  -8   42.55    4.65
  -4   2   8   53.65    4.42
  -4   2   8   51.32    4.52
  -2  -2   8   34.71    2.81
   2  -2  -8   29.00    2.94
   2  -2  -8   31.12    2.82
  -2  -2   8   35.22    2.81
  -2   2   8   36.92    2.95
   2   2  -8   35.33    3.27
   0  -2  -8   10.27    2.09
   0  -2   8    9.21    1.59
   0  -2  -8    8.44    1.77
   0  -2  -8   11.48    2.11
   0   2   8    8.70    1.36
   0   2  -8   11.05    1.78
  -2  -2  -8   -0.80    0.82
  -2  -2  -8    0.25    0.88
   2  -2   8    0.09    0.99
   2  -2   8    1.79    0.69
  -2  -2  -8    0.66    0.91
   2   2   8    0.21    0.70
  -2   2  -8   -0.99    1.23
  -2   2  -8   -0.64    1.54
   4  -2   8   -0.93    1.10
  -4  -2  -8    0.05    1.12
   4  -2   8    0.59    0.78
   4  -2   8    1.27    2.17
   4  -2   8    0.75    1.78
   4   2   8   -0.23    0.84
   4   2   8    0.99    1.05
  -4   2  -8    0.08    1.82
  -4   2  -8    0.45    1.83
   6  -2   8    0.29    1.13
   6  -2   8    0.09    0.81
   6  -2   8    1.14    0.81
   6  -2   8   -0.16    1.02
   6   2   8    0.34    0.66
   5  -3  -8    3.84    2.18
   5   3  -8    3.20    1.79
  -5   3   8    4.51    1.86
  -5   3   8    6.26    2.35
  -3  -3   8   21.66    2.55
  -3  -3   8   18.17    1.80
  -3  -3   8   20.35    3.73
   3  -3  -8   21.04    2.39
   3  -3  -8   19.75    3.67
   3   3  -8   24.34    3.87
   3   3  -8   22.97    3.16
  -3   3   8   25.86    2.95
   1  -3  -8   34.87    4.04
  -1  -3   8   35.56    2.78
   1  -3  -8   38.35    2.87
   1  -3  -8   31.84    2.70
  -1  -3   8   31.66    3.68
  -1  -3   8   36.30    2.37
   1   3  -8   11.94    2.44
   1   3  -8   22.03    2.85
  -1  -3  -8   26.00    3.25
  -1  -3  -8   28.80    3.33
   1  -3   8   31.10    2.20
  -1  -3  -8   28.58    2.49
   1  -3   8   34.00    3.09
  -1  -3  -8   27.30    2.55
  -1   3  -8   29.02    2.96
  -1   3  -8   26.46    2.82
   3  -3   8    7.96    1.36
  -3  -3  -8    5.29    1.97
   3  -3   8    6.17    1.81
  -3  -3  -8    7.02    1.93
  -3   3  -8    2.35    2.14
  -3   3  -8    7.49    2.31
   5  -3   8    0.64    0.88
   5  -3   8    2.19    1.19
   5  -3   8    0.81    0.92
   5   3   8    0.46    0.70
  -5   3  -8    1.10    1.44
   4  -4  -8   13.39    3.15
   4  -4  -8   15.68    2.24
   4   4  -8    9.30    2.59
   2  -4  -8   16.31    1.81
  -2  -4   8   12.37    3.54
  -2  -4   8   12.33    1.88
   2  -4  -8   16.43    1.85
  -2  -4   8   13.80    2.25
   2  -4  -8   22.72    3.83
   2   4  -8    6.00    2.50
   2   4  -8   11.06    3.23
   0  -4  -8    9.82    1.54
   0  -4   8    6.08    1.79
   0  -4   8    9.56    1.24
   0  -4  -8    8.40    2.90
   0  -4   8    7.50    1.70
   0  -4  -8    9.27    2.92
   0   4  -8    9.29    2.35
   0   4  -8    7.83    2.33
  -2  -4  -8    6.24    2.49
  -2  -4  -8    0.82    0.91
  -2   4  -8    2.35    1.68
  -2   4  -8    1.96    1.70
   4  -4   8   -0.24    0.85
  -4  -4  -8   -0.71    1.35
   4  -4   8   -0.37    1.17
  -4  -4  -8   -0.33    0.82
  -4   4  -8    0.59    1.51
   2  -6  -8    4.91    2.09
   0  -6   8    4.71    1.69
   0  -6  -8    3.32    1.80
   0  -6  -8    2.67    1.10
  -5  -1   9    5.63    2.07
   5  -1  -9    7.93    1.75
   5  -1  -9    7.87    1.69
   5  -1  -9    2.92    1.52
  -5  -1   9    7.47    1.62
   5   1  -9    8.14    1.93
  -5   1   9   11.00    2.71
  -5   1   9    4.61    1.98
   3  -1  -9   16.90    1.28
  -3  -1   9   17.37    2.22
   3  -1  -9   17.06    1.76
  -3  -1   9   14.94    2.34
   3  -1  -9   10.80    2.12
   3   1  -9   26.81    2.69
  -3   1   9   29.43    2.87
  -3   1   9   27.17    3.01
  -3   1   9   31.11    2.93
   3   1  -9   28.84    2.85
  -1  -1   9   22.69    1.99
   1  -1  -9   20.22    2.05
   1  -1  -9   20.36    2.52
   1  -1  -9   16.38    2.35
  -1   1   9   11.86    1.65
   1   1  -9   10.38    1.84
   1   1  -9   11.91    1.66
   1  -1   9    3.66    1.26
   1  -1   9    3.98    1.33
  -1  -1  -9    7.23    0.90
  -1  -1  -9    5.08    1.27
  -1   1  -9    5.94    1.30
   1   1   9    5.94    1.35
   3  -1   9    0.58    1.29
  -3  -1  -9   -0.16    0.75
   3  -1   9   -0.31    1.04
   3  -1   9   -0.64    0.75
  -3  -1  -9    0.67    0.96
   3   1   9   -0.22    1.06
  -3   1  -9    1.47    1.69
  -3   1  -9    2.23    1.46
   3   1   9    0.18    1.10
   5  -1   9   -0.73    0.90
   5  -1   9    0.73    1.13
   5  -1   9   -1.10    1.51
   5  -1   9   -2.32    2.31
   5   1   9   -0.66    1.01
   5   1   9    0.01    1.28
  -5   1  -9   -0.33    1.15
  -5   1  -9    0.07    0.97
   6  -2  -9    8.81    2.19
  -6  -2   9    8.95    1.72
  -6   2   9    5.92    2.01
  -6   2   9    2.53    1.64
   6   2  -9    5.38    1.56
   4  -2  -9   13.66    1.46
  -4  -2   9   12.49    3.47
  -4  -2   9   14.91    2.44
  -4  -2   9   13.74    1.98
  -4   2   9   17.14    2.92
  -4   2   9   15.88    2.99
   4   2  -9   16.25    3.17
  -4   2   9   16.32    2.99
   4   2  -9   14.86    2.74
  -2  -2   9    2.91    1.27
   2  -2  -9    1.59    1.03
  -2  -2   9    2.33    1.27
   2  -2  -9    2.25    1.01
   2  -2  -9    5.44    1.73
   2  -2  -9    6.37    2.01
   2   2  -9    0.70    1.29
  -2   2   9    3.23    1.37
   2   2  -9    3.28    1.72
   0  -2  -9    4.20    1.57
   0  -2  -9    2.15    0.79
   0  -2   9    3.63    1.48
   0  -2   9    2.82    1.09
   0  -2  -9    3.04    1.13
   0   2   9    4.11    1.02
   0   2  -9    3.72    1.33
   2  -2   9   10.82    1.31
  -2  -2  -9    7.06    1.91
  -2  -2  -9   10.24    1.67
   2  -2   9    7.28    1.93
  -2  -2  -9   11.80    1.93
   2  -2   9    8.94    1.36
  -2   2  -9   10.27    2.01
  -2   2  -9    7.92    1.91
  -4  -2  -9    6.67    1.66
   4  -2   9    8.27    1.96
   4  -2   9    6.33    1.95
   4  -2   9    8.90    2.67
   4  -2   9    7.26    1.36
  -4  -2  -9    9.83    2.69
   4   2   9    2.78    1.12
  -4   2  -9    6.92    2.14
   5  -3  -9    6.15    2.37
   5   3  -9    5.02    1.82
  -5   3   9    1.83    1.68
   3  -3  -9   13.15    3.01
  -3  -3   9   11.36    3.39
   3  -3  -9   11.19    2.28
  -3  -3   9   10.42    1.58
  -3   3   9   15.31    2.71
   3   3  -9   13.07    3.50
   3   3  -9   11.21    2.71
   1  -3  -9   16.53    2.01
   1  -3  -9   13.57    2.48
   1  -3  -9   13.27    1.78
  -1  -3   9   16.21    2.06
  -1  -3   9   16.77    1.57
   1   3  -9    6.42    2.14
   1   3  -9   10.97    2.69
  -1  -3  -9    4.06    1.91
  -1  -3  -9    3.71    1.32
  -1  -3  -9    6.70    1.39
   1  -3   9    4.05    1.14
  -1  -3  -9    3.89    1.58
   1  -3   9    5.18    1.62
  -1   3  -9    5.63    1.84
  -1   3  -9    3.18    1.50
  -3  -3  -9   -0.18    1.32
  -3  -3  -9    1.19    1.55
   3  -3   9   -0.14    0.72
  -3  -3  -9   -0.96    1.11
   3  -3   9   -0.85    1.09
   3  -3   9   -0.87    0.85
  -3   3  -9    1.24    1.76
  -3   3  -9    0.25    1.58
   5  -3   9   -0.36    0.79
   5  -3   9    0.05    0.99
   5  -3   9   -0.25    0.71
   5   3   9    0.53    0.68
  -5   3  -9    1.18    1.15
   4  -4  -9    6.17    2.45
   4   4  -9    3.48    2.04
   2  -4  -9    4.41    2.38
  -2  -4   9    4.90    2.66
   2  -4  -9    2.32    1.00
  -2  -4   9    2.26    1.36
  -2  -4   9    2.08    1.17
   2  -4  -9    2.93    1.05
   2   4  -9   -1.05    2.90
   2   4  -9    4.28    2.50
   0  -4  -9   -1.82    2.33
   0  -4  -9    0.47    1.84
   0  -4  -9    4.26    1.25
   0  -4  -9    0.91    0.98
   0  -4   9    0.11    1.20
   0  -4   9    0.07    0.66
   0   4  -9   -1.08    1.54
   0   4  -9    0.64    1.47
  -2  -4  -9   -0.45    1.01
  -2   4  -9    1.03    1.55
   4  -4   9    2.11    0.95
  -4  -4  -9   -0.27    0.80
  -4  -4  -9   -0.43    1.27
  -4   4  -9    1.15    1.38
   0  -6  -9    0.18    0.90
   5  -1 -10    6.70    1.55
   5  -1 -10    3.58    1.54
  -5  -1  10    6.44    2.06
  -5  -1  10    5.44    1.66
   5   1 -10    2.20    1.44
  -5   1  10    8.81    2.54
  -5   1  10    3.04    1.75
  -3  -1  10    8.46    2.22
   3  -1 -10    8.76    1.92
  -3  -1  10   12.26    1.78
   3  -1 -10    9.14    1.41
  -3  -1  10    8.76    1.96
   3   1 -10    8.78    2.04
  -3   1  10    8.64    1.99
   3   1 -10    9.00    1.83
   3   1 -10    9.22    1.73
  -3   1  10   10.45    2.19
  -3   1  10    8.12    2.50
   1  -1 -10    0.94    0.99
  -1  -1  10    0.22    0.90
   1  -1 -10    0.64    0.80
   1  -1 -10   -0.57    0.80
   1  -1 -10    0.00    0.69
   1   1 -10    0.66    1.15
  -1   1  10   -0.51    1.01
   1   1 -10   -0.37    0.86
   1  -1  10    9.18    1.69
  -1  -1 -10    9.50    1.05
  -1  -1 -10    9.28    1.58
   1  -1  10    7.45    1.58
  -1   1 -10    8.12    1.45
   1   1  10    9.92    1.45
  -3  -1 -10   12.66    2.07
  -3  -1 -10   12.19    1.30
   3  -1  10    6.39    1.43
   3  -1  10   11.39    2.09
   3  -1  10    7.86    2.25
   3   1  10    3.24    1.42
   3   1  10    4.04    1.53
   5  -1  10    1.87    1.15
   5  -1  10    2.93    2.19
   5  -1  10    6.43    1.48
   5  -1  10    2.25    1.07
   5   1  10    0.73    1.40
   5   1  10    1.23    1.10
  -5   1 -10    3.39    1.43
  -5   1 -10    2.50    1.11
  -6  -2  10    4.58    1.39
   6  -2 -10    3.74    1.70
  -6   2  10    1.25    1.30
   6   2 -10   -0.01    1.10
  -6   2  10    4.28    1.65
  -4  -2  10    2.01    1.62
  -4  -2  10    3.55    2.16
  -4  -2  10    0.51    1.25
  -4   2  10    1.89    2.06
   4   2 -10    0.91    1.73
   2  -2 -10    5.26    1.53
  -2  -2  10    4.85    1.63
   2  -2 -10    8.55    2.20
   2  -2 -10    2.31    1.14
  -2  -2  10    5.28    1.48
  -2   2  10    1.01    1.42
   2   2 -10    1.00    1.08
   2   2 -10    1.47    1.56
   2   2 -10    0.76    1.46
   0  -2  10   18.50    1.84
   0  -2 -10   20.30    2.17
   0  -2  10   23.37    2.77
   0  -2 -10   20.85    2.65
   0  -2 -10   25.17    2.48
   0   2  10   19.66    1.98
   0   2 -10   21.65    2.34
   2  -2  10   15.38    2.19
  -2  -2 -10   16.62    2.28
  -2  -2 -10   15.39    2.01
   2  -2  10   12.54    1.68
   2  -2  10   14.69    1.60
  -2  -2 -10   15.78    2.24
   2  -2  10   12.93    2.13
  -2   2 -10   13.69    2.11
  -2   2 -10   16.47    2.27
   4  -2  10    8.79    1.98
   4  -2  10    9.14    2.75
  -4  -2 -10    9.32    2.35
  -4   2 -10    8.14    1.86
   4   2  10    1.36    1.03
   5  -3 -10    3.25    1.73
  -5   3  10    1.15    1.41
   5   3 -10    2.46    1.65
   3  -3 -10    5.49    2.46
   3  -3 -10    4.22    1.40
  -3  -3  10    4.67    1.45
  -3  -3  10    4.56    2.47
   3  -3 -10    1.43    1.28
   3   3 -10    2.35    2.11
  -3   3  10    1.66    2.09
   3   3 -10    0.22    2.49
   1  -3 -10   -0.25    0.81
  -1  -3  10    1.36    0.78
   1  -3 -10    0.28    1.01
   1  -3 -10   -0.68    1.39
  -1  -3  10   -0.19    1.20
   1   3 -10   -0.29    1.74
   1   3 -10    0.13    1.64
   1   3 -10    1.30    1.56
   1   3 -10    0.47    2.07
  -1  -3 -10    2.56    0.86
  -1  -3 -10    1.80    1.43
  -1  -3 -10    1.56    1.31
   1  -3  10    1.88    0.92
  -1  -3 -10   -0.26    2.09
   1  -3  10    2.69    1.44
  -1   3 -10    1.43    1.43
  -1   3 -10    0.72    1.36
  -3  -3 -10    5.02    1.98
   3  -3  10    4.70    1.19
  -3  -3 -10    2.39    1.44
   3  -3  10    5.84    1.70
   3  -3  10    2.60    0.97
  -3  -3 -10    7.52    2.49
  -3   3 -10    6.52    1.91
   5  -3  10    3.58    0.95
  -5   3 -10    3.78    1.15
   5   3  10    1.46    0.69
   4  -4 -10    1.16    1.74
   4   4 -10    0.15    1.83
   4   4 -10    1.56    1.76
  -2  -4  10    0.27    1.29
   2  -4 -10    1.25    1.03
   2  -4 -10    0.08    0.98
   2  -4 -10    4.29    2.33
   2   4 -10    3.33    2.49
   2   4 -10    2.51    2.18
   0  -4 -10    3.15    1.34
   0  -4  10    2.99    0.93
   0   4 -10    6.36    2.12
   0   4 -10    5.07    1.99
   0   4 -10    8.14    2.36
  -2  -4 -10    6.88    2.03
  -2   4 -10    6.59    1.92
   4  -4  10    2.44    0.83
  -4  -4 -10    2.14    1.31
  -4  -4 -10    1.35    0.80
  -4   4 -10    2.37    1.33
   0  -6 -10   -0.32    0.77
   5  -1 -11    3.05    1.08
  -5  -1  11    0.65    1.36
  -5  -1  11    3.61    1.65
   5  -1 -11    1.52    1.36
   5   1 -11    0.27    1.23
  -5   1  11    1.81    2.00
  -5   1  11    0.89    1.53
   5   1 -11    0.98    1.49
  -3  -1  11   -1.08    1.58
  -3  -1  11    0.76    1.23
   3  -1 -11   -0.03    1.17
   3  -1 -11   -0.31    1.10
  -3  -1  11   -0.09    1.37
   3  -1 -11    0.36    0.89
  -3   1  11   -0.54    1.42
   3   1 -11   -0.01    1.22
   3   1 -11   -0.49    1.40
   3   1 -11    0.33    1.00
   3   1 -11    0.04    1.28
  -3   1  11   -0.01    1.58
  -1  -1  11   19.89    2.03
   1  -1 -11   18.45    2.05
   1  -1 -11   17.14    2.11
   1  -1 -11   19.99    1.76
   1  -1 -11   19.16    2.42
   1   1 -11   18.98    2.08
   1   1 -11   16.93    2.28
  -1   1  11   17.41    2.15
   1  -1  11   52.82    3.85
  -1  -1 -11   51.35    4.46
  -1  -1 -11   49.50    3.33
   1  -1  11   53.18    3.96
  -1  -1 -11   48.07    3.78
   1  -1  11   50.84    3.21
   1   1  11   45.63    3.07
  -1   1 -11   45.12    3.18
   1   1  11   33.57    3.65
  -1   1 -11   35.27    3.48
  -1   1 -11   37.00    2.91
   3  -1  11   25.42    3.30
  -3  -1 -11   33.32    3.32
  -3  -1 -11   32.95    2.26
   3  -1  11   31.06    2.52
   3  -1  11   29.11    3.15
  -3   1 -11   16.40    2.29
   3   1  11   19.73    2.52
   3   1  11   22.82    2.51
   5  -1  11    8.64    1.42
   5  -1  11   10.74    1.63
   5  -1  11   13.94    2.39
   5   1  11    7.82    1.37
   5   1  11    8.10    1.69
  -5   1 -11    8.38    1.33
  -4  -2  11    6.85    2.01
   4  -2 -11   10.83    2.65
  -4  -2  11    8.46    2.71
  -4  -2  11    4.57    1.77
  -4   2  11    5.37    2.28
   4   2 -11    6.56    2.46
   4   2 -11    4.42    1.98
  -2  -2  11   15.09    2.63
   2  -2 -11   22.14    2.32
   2  -2 -11   18.38    2.25
   2  -2 -11   19.52    2.85
   2   2 -11   10.12    2.19
   2   2 -11   13.44    2.09
  -2   2  11   10.93    2.20
   2   2 -11    9.49    2.38
  -2   2  11    7.46    2.30
   0  -2 -11   34.41    3.13
   0  -2  11   33.31    3.25
   0  -2  11   32.37    2.45
   0  -2 -11   33.99    3.48
   0  -2 -11   30.67    2.93
   0   2 -11   31.87    2.90
   0   2  11   30.12    2.65
   0   2 -11   30.87    3.01
   0   2 -11   31.18    2.93
   2  -2  11   21.05    1.85
  -2  -2 -11   17.71    2.39
   2  -2  11   17.99    2.40
   2  -2  11   14.25    2.23
   2  -2  11   18.20    1.90
  -2  -2 -11   23.53    2.59
  -2   2 -11   16.80    2.26
  -2   2 -11   18.71    2.15
   2   2  11   11.16    1.81
   4  -2  11   10.22    2.36
  -4  -2 -11   11.18    2.16
   4  -2  11    5.43    1.31
  -4   2 -11    6.14    1.67
   4   2  11    2.24    1.06
   5  -3 -11    0.72    1.46
   5   3 -11   -0.76    1.32
  -5   3  11    1.37    1.28
   3  -3 -11    0.77    1.93
  -3  -3  11    0.67    1.24
   3  -3 -11   -0.15    1.13
  -3  -3  11   -0.45    2.05
   3   3 -11   -0.31    1.81
  -1  -3  11    9.54    1.38
   1  -3 -11    8.25    1.87
   1  -3 -11   10.84    1.95
  -1  -3  11    8.82    2.13
   1   3 -11    9.27    2.91
   1   3 -11   10.09    2.52
   1   3 -11   11.63    2.62
   1  -3  11   17.08    1.90
  -1  -3 -11   22.68    2.19
   1  -3  11   19.93    2.52
  -1  -3 -11   14.15    2.52
  -1  -3 -11   24.32    2.98
  -1   3 -11   17.91    2.52
  -1   3 -11   20.40    2.55
  -3  -3 -11   16.44    2.67
   3  -3  11   17.14    2.15
  -3  -3 -11   15.51    2.50
   3  -3  11   10.96    1.54
   3  -3  11   15.92    1.74
  -3  -3 -11   21.60    2.94
  -3   3 -11   15.54    2.32
   4  -4 -11    2.61    1.71
   4   4 -11    1.42    1.71
   4   4 -11    2.10    1.64
   2  -4 -11    4.74    1.47
   2  -4 -11    3.77    1.19
   2  -4 -11    6.32    2.58
   2   4 -11   11.10    3.02
   2   4 -11    8.37    2.78
   2   4 -11    8.58    2.75
   0  -4  11    6.87    1.25
   0  -4 -11    7.40    1.80
   0   4 -11   15.20    2.78
  -2  -4 -11    8.52    2.00
  -2   4 -11    7.86    1.96
  -4  -4 -11    1.27    1.00
   4  -4  11    2.36    0.70
  -4   4 -11    1.95    1.11
  -5  -1  12    0.48    1.26
   5  -1 -12    0.17    0.73
   5  -1 -12    0.78    1.24
  -5  -1  12    0.89    1.34
  -5   1  12   -0.20    1.67
  -5   1  12    1.07    1.31
   5   1 -12    0.78    1.34
   3  -1 -12   17.61    1.79
   3  -1 -12   17.41    2.26
  -3  -1  12   17.95    2.29
  -3  -1  12   14.87    2.58
  -3  -1  12   18.83    2.20
   3  -1 -12   16.30    2.30
   3   1 -12   10.45    2.24
   3   1 -12    8.79    2.06
  -3   1  12    7.43    1.99
   3   1 -12   15.21    1.87
  -3   1  12    8.63    2.39
  -1  -1  12   55.18    3.50
  -1  -1  12   56.03    4.20
  -1  -1  12   56.72    4.04
   1  -1 -12   56.42    4.07
   1  -1 -12   58.09    5.00
   1  -1 -12   59.46    3.84
   1  -1 -12   54.69    4.51
  -1   1  12   52.67    3.97
   1   1 -12   51.38    4.27
   1   1 -12   54.53    3.90
   1   1 -12   51.84    4.28
   1   1 -12   57.50    4.38
  -1   1  12   55.29    4.15
   1   1 -12   56.82    4.41
   1  -1  12   72.42    5.22
   1  -1  12   73.36    5.06
   1  -1  12   77.06    4.34
  -1  -1 -12   72.45    4.60
  -1  -1 -12   66.40    4.94
  -1  -1 -12   74.66    6.11
  -1   1 -12   67.54    4.55
   1   1  12   65.41    4.21
   1   1  12   60.98    4.31
  -1   1 -12   56.96    4.52
  -1   1 -12   57.85    4.09
  -1   1 -12   56.25    5.02
   3  -1  12   37.85    3.50
  -3  -1 -12   36.92    2.52
  -3  -1 -12   41.27    3.85
   3  -1  12   42.23    2.92
  -3   1 -12   31.47    3.43
  -3   1 -12   30.92    2.94
   3   1  12   31.83    3.11
   3   1  12   36.31    3.09
   5  -1  12   11.89    1.34
   5  -1  12   14.90    2.02
   5   1  12   10.56    1.37
  -5   1 -12   11.24    1.27
   5   1  12   10.76    1.68
  -4  -2  12    7.49    2.03
  -4  -2  12   15.14    2.12
   4  -2 -12   13.79    2.75
   4   2 -12    5.23    1.96
   4   2 -12    4.70    1.85
  -4   2  12    6.01    2.16
   2  -2 -12   23.16    2.41
  -2  -2  12   18.08    2.77
  -2  -2  12   20.51    1.89
   2  -2 -12   22.46    2.41
   2   2 -12   20.75    2.56
  -2   2  12   13.81    2.75
   2   2 -12   18.56    2.49
   2   2 -12   14.19    2.43
   2   2 -12   16.53    2.64
  -2   2  12   10.35    2.24
   0  -2  12   14.53    2.33
   0  -2 -12   16.23    2.24
   0  -2  12   15.31    1.65
   0  -2 -12   16.06    2.46
   0  -2 -12   15.21    2.28
   0   2  12   13.78    1.98
   0   2 -12   12.92    2.22
   0   2 -12   12.15    2.20
   0   2 -12   14.95    2.11
   2  -2  12    8.49    1.85
   2  -2  12    7.55    1.35
  -2  -2 -12    8.10    1.96
   2  -2  12    8.64    1.27
  -2   2 -12    7.41    1.69
  -2   2 -12    8.34    1.87
   2   2  12    6.85    1.53
   2   2  12    5.67    1.54
   4  -2  12    2.76    0.92
   4  -2  12    1.52    1.31
   4  -2  12    3.98    1.52
  -4  -2 -12    4.75    1.84
  -4   2 -12    2.58    1.23
   4   2  12    1.59    0.89
   5  -3 -12    0.69    1.39
   5   3 -12   -0.30    1.23
   5   3 -12    1.23    1.26
  -5   3  12    0.05    1.00
   3  -3 -12    3.73    1.42
  -3  -3  12    5.40    1.61
   3  -3 -12    9.76    2.34
   3   3 -12    8.71    2.16
   3   3 -12    5.16    2.10
  -3   3  12    4.05    1.86
   1  -3 -12   22.94    2.71
  -1  -3  12   29.20    3.01
  -1  -3  12   25.45    2.13
   1  -3 -12   28.82    2.81
   1   3 -12   30.15    3.67
   1   3 -12   34.90    3.56
   1   3 -12   33.59    3.87
   1  -3  12   39.58    2.91
  -1  -3 -12   41.41    4.13
  -1  -3 -12   41.02    3.29
   1  -3  12   37.32    3.45
  -1  -3 -12   36.88    3.56
  -1   3 -12   36.69    3.41
  -1   3 -12   33.50    3.34
   3  -3  12   17.54    1.73
  -3  -3 -12   26.38    2.89
  -3  -3 -12   20.64    2.62
   3  -3  12   17.92    1.77
   3  -3  12   19.63    2.21
  -3  -3 -12   18.89    2.59
  -3   3 -12   19.96    2.44
   4  -4 -12    5.21    1.93
   4   4 -12    4.77    1.60
   4   4 -12    4.81    1.84
   4   4 -12    2.15    1.53
   2  -4 -12    9.23    1.87
   2  -4 -12    7.40    1.56
   2  -4 -12    9.93    2.50
   2   4 -12   10.32    2.92
   2   4 -12   15.08    2.90
   0  -4  12    7.43    1.26
   0  -4 -12    8.09    1.80
   0   4 -12   11.26    2.50
  -2  -4 -12    5.05    1.68
  -2   4 -12    2.71    1.45
  -5  -1  13    6.87    1.55
   5  -1 -13    7.27    1.66
  -5  -1  13    4.02    1.38
   5   1 -13    8.25    1.60
  -5   1  13    6.52    1.54
   5   1 -13    4.69    1.53
   3  -1 -13   29.03    2.78
   3  -1 -13   26.26    2.25
  -3  -1  13   31.42    2.74
   3  -1 -13   31.39    3.00
  -3  -1  13   26.81    2.69
   3   1 -13   21.70    2.54
   3   1 -13   19.70    2.56
  -3   1  13   18.64    3.01
   3   1 -13   23.20    2.25
  -3   1  13   23.37    2.60
   3   1 -13   22.90    2.66
   3   1 -13   22.85    2.80
  -1  -1  13   69.78    4.99
   1  -1 -13   66.36    5.79
  -1  -1  13   70.16    4.12
   1  -1 -13   68.10    4.76
  -1  -1  13   68.31    4.73
   1  -1 -13   68.95    5.39
   1  -1 -13   69.26    4.49
   1   1 -13   67.02    5.31
   1   1 -13   66.45    4.66
   1   1 -13   71.14    5.08
  -1   1  13   69.80    4.95
   1   1 -13   66.59    5.05
  -1   1  13   64.39    4.72
   1  -1  13   46.70    3.61
   1  -1  13   49.42    3.07
  -1  -1 -13   47.27    3.14
   1  -1  13   46.94    3.70
  -1  -1 -13   47.26    3.59
  -1  -1 -13   49.36    4.37
  -1   1 -13   42.94    3.27
  -1   1 -13   38.22    3.65
   1   1  13   42.89    3.15
  -1   1 -13   38.94    3.08
   1   1  13   43.78    3.27
  -3  -1 -13   26.98    3.07
   3  -1  13   26.87    2.64
   3  -1  13   27.74    2.21
  -3   1 -13   24.41    2.35
   3   1  13   22.65    2.35
  -3   1 -13   22.62    2.74
   5  -1  13    6.36    0.85
   5  -1  13    7.91    1.35
   5   1  13    6.64    1.27
  -5   1 -13    6.77    0.83
   5   1  13    4.81    0.89
  -4  -2  13   10.85    2.03
   4  -2 -13   12.52    2.45
   4   2 -13   16.41    2.52
   4   2 -13    9.70    2.36
   4   2 -13   10.60    2.36
  -4   2  13   10.88    2.30
  -2  -2  13   12.44    1.43
  -2  -2  13   13.33    2.29
   2  -2 -13   14.45    2.00
   2  -2 -13   12.15    2.08
   2   2 -13   13.24    2.28
   2   2 -13   15.05    2.28
  -2   2  13    9.19    2.72
  -2   2  13   12.51    2.16
   2   2 -13   12.79    1.79
   2   2 -13   11.12    2.48
   0  -2 -13    4.87    1.42
   0  -2 -13    2.98    1.26
   0  -2  13    3.62    1.45
   0  -2  13    3.18    0.95
   0  -2 -13    2.54    1.29
   0   2 -13    2.90    1.46
   0   2 -13    3.42    1.65
   0   2  13    4.45    1.61
   0   2 -13    3.87    1.58
   2  -2  13    1.20    0.69
   2  -2  13    0.28    0.78
  -2  -2 -13    0.20    1.08
   2  -2  13    0.08    1.23
  -2   2 -13   -0.77    1.13
   2   2  13    0.53    0.89
  -2   2 -13   -0.77    0.98
   4  -2  13    1.03    1.08
   4  -2  13   -0.10    0.63
   4  -2  13    0.46    1.08
   4   2  13    0.39    0.66
  -4   2 -13   -0.28    0.98
   3  -3 -13   19.50    2.63
  -3  -3  13   16.04    1.91
   3  -3 -13   10.19    1.93
   3   3 -13   19.99    2.85
   3   3 -13   14.56    2.66
  -3   3  13   12.45    2.18
   3   3 -13   13.57    1.87
   3   3 -13   14.21    2.63
  -1  -3  13   35.42    3.28
  -1  -3  13   31.84    2.45
   1  -3 -13   32.87    3.09
   1  -3 -13   40.73    3.36
   1   3 -13   31.17    3.71
   1   3 -13   42.31    3.81
  -1  -3 -13   35.14    3.61
  -1  -3 -13   34.14    2.90
  -1  -3 -13   30.29    3.03
   1  -3  13   29.44    2.95
   1  -3  13   31.22    2.46
  -1   3 -13   30.35    3.14
   3  -3  13   12.97    1.28
   3  -3  13    9.63    1.26
  -3  -3 -13   11.43    1.79
  -3  -3 -13   10.39    1.85
  -3   3 -13   11.50    1.83
   2  -4 -13    4.76    1.58
   2  -4 -13    3.56    1.10
   2   4 -13    9.05    2.61
   2   4 -13    6.23    2.39
   0  -4 -13    5.07    1.36
   0  -4 -13    1.53    1.04
   0  -4  13    1.58    0.73
   0   4 -13    6.03    2.01
  -2  -4 -13    8.19    1.51
  -2   4 -13   -0.05    1.20
  -5  -1  14    8.64    1.43
   5  -1 -14    9.34    1.85
   5   1 -14   13.39    1.61
  -5   1  14   12.38    1.67
   3  -1 -14   36.73    3.14
   3  -1 -14   36.24    3.46
  -3  -1  14   38.93    3.12
  -3  -1  14   39.54    3.12
   3   1 -14   33.26    2.85
   3   1 -14   38.18    3.20
   3   1 -14   33.75    3.19
  -3   1  14   35.97    3.27
   3   1 -14   37.64    3.47
   1  -1 -14   40.10    2.92
   1  -1 -14   42.50    4.03
  -1  -1  14   44.17    2.86
   1  -1 -14   42.79    3.38
   1  -1 -14   45.47    3.75
  -1  -1  14   43.04    3.32
   1   1 -14   42.68    3.52
  -1   1  14   39.95    3.44
   1   1 -14   45.37    3.67
   1   1 -14   38.70    3.29
  -1   1  14   40.24    3.35
   1   1 -14   40.13    3.24
   1  -1  14   14.86    1.87
  -1  -1 -14   19.88    2.33
  -1  -1 -14   17.73    1.94
   1  -1  14   16.30    1.85
  -1  -1 -14   15.17    1.28
   1  -1  14   17.71    1.58
  -1   1 -14   14.15    1.71
  -1   1 -14   14.84    1.69
   1   1  14   15.34    1.90
  -1   1 -14   15.10    1.94
   1   1  14   14.52    1.72
  -3  -1 -14    5.23    1.76
   3  -1  14    4.93    1.29
   3  -1  14    5.93    1.07
  -3   1 -14    5.05    1.20
   3   1  14    4.35    1.23
  -3   1 -14    5.29    1.64
   4  -2 -14    6.94    2.05
  -4  -2  14    7.19    1.50
   4   2 -14    8.38    2.09
   4   2 -14    8.78    2.02
  -4   2  14    6.39    1.82
   4   2 -14    7.54    1.89
  -2  -2  14    0.52    0.64
  -2  -2  14    0.88    1.32
   2  -2 -14    1.38    1.08
   2  -2 -14    0.93    1.02
   2   2 -14    1.34    1.01
  -2   2  14    1.94    1.44
   2   2 -14    0.18    1.23
   2   2 -14    1.89    1.49
   0  -2  14   -0.60    1.09
   0  -2  14    0.04    0.69
   0  -2 -14   -0.04    0.97
   0  -2 -14   -0.63    1.04
   0   2 -14    1.11    1.40
   0   2 -14   -0.36    1.21
   0   2 -14    0.13    0.85
   0   2  14   -0.85    1.37
   0   2  14    0.18    1.14
  -2  -2 -14    0.88    1.14
   2  -2  14    0.63    0.76
   2  -2  14    1.00    1.15
   2  -2  14    1.55    0.68
  -2   2 -14    0.98    1.28
   2   2  14    0.88    0.94
   4   2  14    0.69    0.59
  -4   2 -14    0.68    0.78
  -3  -3  14   15.39    1.66
   3  -3 -14   15.54    1.89
   3   3 -14   15.61    2.58
   3   3 -14   17.12    1.91
   3   3 -14   20.39    2.68
  -3   3  14   16.59    2.15
  -1  -3  14   20.20    2.31
   1  -3 -14   21.82    2.37
  -1  -3  14   23.39    1.83
   1  -3 -14   26.23    2.72
   1   3 -14   23.39    2.99
   1   3 -14   28.99    3.10
   1  -3  14   12.35    1.92
  -1  -3 -14   12.17    1.83
  -1  -3 -14   16.26    2.01
   1  -3  14   13.26    1.47
  -1  -3 -14   15.65    2.43
  -1   3 -14    8.95    1.59
  -1   3 -14   15.00    2.13
   3  -3  14    3.34    0.79
   3  -3  14    3.55    1.10
  -3  -3 -14    4.46    1.26
  -3   3 -14    3.64    1.23
   2  -4 -14    1.15    0.78
   2  -4 -14    1.30    0.85
   2   4 -14    0.78    1.00
   2   4 -14    2.74    1.82
   2   4 -14    3.81    1.72
   0  -4  14   -0.10    0.56
   0  -4 -14    1.21    0.74
   0  -4 -14    1.51    0.81
   0   4 -14    0.02    1.46
  -2  -4 -14    0.35    0.60
  -2  -4 -14    0.74    0.75
  -2   4 -14   -1.33    1.04
  -5   1  15   15.14    1.66
   3  -1 -15   27.03    2.62
  -3  -1  15   23.92    2.25
   3  -1 -15   23.74    2.36
   3   1 -15   24.90    2.73
  -3   1  15   26.42    2.68
   3   1 -15   23.79    2.47
   3   1 -15   26.48    2.46
   3   1 -15   24.17    2.28
  -1  -1  15    9.73    1.45
   1  -1 -15    8.43    1.64
  -1  -1  15    8.85    1.22
   1  -1 -15   11.00    1.78
   1  -1 -15    8.75    0.93
  -1  -1  15    7.88    1.73
   1   1 -15    6.34    1.33
   1   1 -15    8.11    1.81
  -1   1  15    9.40    1.60
   1   1 -15    8.32    1.48
  -1   1  15    9.15    1.93
   1  -1  15    0.97    0.87
  -1  -1 -15    2.56    1.15
   1  -1  15    1.21    0.71
  -1  -1 -15    2.61    0.94
  -1   1 -15    2.17    0.75
   1   1  15    2.61    1.05
  -1   1 -15    1.00    0.87
  -1   1 -15    2.07    0.87
   3  -1  15    0.03    0.73
  -3  -1 -15    0.15    0.94
   3  -1  15   -0.12    0.60
  -3   1 -15    0.28    0.72
  -3   1 -15   -0.42    0.84
   3   1  15    0.21    0.74
  -4  -2  15    1.02    0.98
  -4   2  15    0.86    1.20
   4   2 -15    2.72    1.31
   2  -2 -15   -0.79    0.85
  -2  -2  15    0.28    1.12
  -2  -2  15    0.49    0.54
   2  -2 -15    0.49    0.94
   2   2 -15    0.10    1.11
  -2   2  15    1.41    1.31
   2   2 -15    0.16    0.88
   2   2 -15   -0.67    1.21
   0  -2 -15    1.18    1.20
   0  -2  15    1.35    1.23
   0  -2 -15    0.65    1.01
   0  -2  15    1.39    0.70
   0   2 -15    0.75    1.30
   0   2  15    1.05    1.28
   0   2 -15    1.37    0.94
   2  -2  15    1.03    0.73
   2  -2  15    1.14    0.64
   2  -2  15    0.41    1.16
  -2  -2 -15    2.14    1.21
   2   2  15    0.31    0.87
   4  -2  15    1.05    0.49
   4   2  15    1.27    0.56
  -3  -3  15    7.40    0.97
   3  -3 -15    9.34    1.35
   3   3 -15   10.83    2.02
   3   3 -15   12.74    2.09
  -3   3  15    6.95    1.43
   3   3 -15    8.57    1.40
   1  -3 -15   12.38    2.13
   1  -3 -15    7.32    1.53
  -1  -3  15    7.48    1.34
  -1  -3  15    6.03    1.00
   1   3 -15    6.33    1.87
   1   3 -15    8.90    1.60
  -1  -3 -15    1.53    1.20
   1  -3  15    0.69    1.02
  -1  -3 -15    1.30    0.94
  -1  -3 -15    0.87    0.76
   1  -3  15    0.28    0.63
  -1   3 -15    1.24    1.25
   3  -3  15   -0.01    0.47
   3  -3  15   -0.78    0.67
   2  -4 -15   -0.46    0.72
   2  -4 -15   -0.08    0.63
   2   4 -15   -0.18    1.34
   2   4 -15    0.00    0.88
   0  -4 -15    3.92    1.13
   0  -4 -15    0.67    0.67
   0  -4  15    0.09    0.51
   0   4 -15    0.17    0.74
   0   4 -15    0.58    1.34
  -2  -4 -15    0.79    0.73
  -2   4 -15    0.26    1.05
   3  -1 -16    4.28    1.45
  -3  -1  16    3.52    1.02
   3  -1 -16    4.36    1.16
   3   1 -16    3.89    1.12
  -3   1  16    5.96    1.49
   3   1 -16    5.20    1.62
   3   1 -16    2.43    1.03
   3   1 -16    4.00    1.11
  -1  -1  16    0.23    0.85
  -1  -1  16   -0.50    0.56
   1  -1 -16    0.99    0.94
   1   1 -16    0.24    0.81
   1   1 -16    1.07    0.97
  -1   1  16   -0.55    0.82
   1   1 -16   -0.25    0.73
  -1  -1 -16    2.36    1.17
  -1  -1 -16    2.33    0.98
   1  -1  16    3.42    0.89
   1  -1  16    2.57    0.97
   1   1  16    4.02    1.16
  -1   1 -16    1.53    0.81
  -1   1 -16    2.86    1.10
   1   1  16    4.56    0.89
   3  -1  16    4.37    0.79
   3  -1  16    4.07    0.87
   3   1  16    5.18    0.99
   3   1  16    4.63    0.73
  -3   1 -16    4.04    0.79
  -4  -2  16    0.59    0.82
  -4   2  16    0.52    0.96
   4   2 -16    1.40    1.00
   2  -2 -16    2.27    1.01
  -2  -2  16    4.44    1.29
  -2  -2  16    3.14    0.77
   2   2 -16    4.69    1.30
  -2   2  16    3.59    1.35
   2   2 -16    3.82    1.39
   2   2 -16    4.07    1.08
   0  -2 -16    8.11    1.47
   0  -2  16    5.64    1.04
   0  -2  16    7.19    1.59
   0  -2 -16   10.18    1.98
   0   2  16    6.21    1.54
   0   2 -16    5.76    1.57
   0   2 -16    4.40    1.16
   2  -2  16    4.19    1.36
   2  -2  16    2.56    0.74
   2  -2  16    2.47    0.64
  -2  -2 -16    3.50    1.38
   2   2  16    3.10    1.00
  -2   2 -16    3.91    1.12
   3  -3 -16    1.26    0.74
   3   3 -16    2.11    1.24
   3   3 -16    1.95    0.80
   3   3 -16    2.09    1.19
  -3   3  16    1.95    0.84
  -1  -3  16    0.34    0.81
  -1  -3  16    0.23    0.49
   1  -3 -16   -0.57    0.71
   1  -3 -16   -0.36    0.89
   1   3 -16    0.64    1.12
   1   3 -16   -0.78    0.78
   1  -3  16    2.02    0.59
  -1  -3 -16    1.06    0.88
   1  -3  16    2.29    0.94
  -1  -3 -16    0.72    0.64
  -1   3 -16    1.79    1.12
   0  -4 -16    1.37    0.65
   0  -4  16    0.61    0.45
   0  -4 -16    0.90    0.60
   0   4 -16    1.11    0.67
   0   4 -16    2.28    1.22
   3  -1 -17    1.61    0.87
   3  -1 -17    1.91    0.86
  -3   1  17    0.93    1.02
  -3   1  17    1.05    0.60
   3   1 -17    0.88    0.81
   3   1 -17    1.66    0.99
   3   1 -17    1.36    0.77
   1  -1 -17    7.34    1.37
  -1  -1  17    7.18    1.28
  -1  -1  17    8.12    1.07
  -1   1  17    6.64    1.31
   1   1 -17    6.48    1.13
   1   1 -17    6.80    1.32
  -1  -1 -17   10.48    1.49
  -1  -1 -17   13.33    2.05
   1  -1  17   12.72    1.23
   1  -1  17   12.11    1.45
  -1   1 -17   12.40    1.35
   1   1  17   12.55    1.59
   1   1  17   13.19    1.21
   3  -1  17    8.21    0.99
   3  -1  17   10.40    0.90
   3   1  17    9.70    0.86
   3   1  17   10.35    1.15
  -3   1 -17    8.30    0.81
  -2  -2  17    3.65    1.16
  -2  -2  17    2.87    0.68
   2  -2 -17    2.61    0.95
  -2   2  17    3.38    1.15
   2   2 -17    2.36    0.91
   0  -2 -17    0.91    0.78
   0  -2  17    1.28    0.60
   0  -2  17    0.78    1.13
   0   2 -17    0.55    0.90
   0   2  17    0.33    1.05
   0   2 -17    0.85    0.72
   2  -2  17    0.14    1.05
   2  -2  17   -0.36    0.38
   2  -2  17    1.00    0.52
  -2   2 -17    0.50    0.75
   2   2  17    0.80    0.77
  -1  -3  17    3.60    0.66
   1  -3 -17    2.85    0.84
  -1  -3  17    3.26    0.82
   1   3 -17    3.79    1.08
   1   3 -17    3.14    1.14
  -1  -3 -17    9.97    1.51
   1  -3  17    7.50    0.85
   1  -3  17    7.28    1.05
   3  -1 -18   11.08    1.30
   3   1 -18    9.72    1.27
  -3   1  18   11.61    1.42
  -3   1  18    8.07    0.93
   3   1 -18    8.63    0.99
  -1  -1  18   15.30    1.32
   1  -1 -18   13.48    1.59
  -1  -1  18   14.74    1.53
  -1   1  18   15.63    1.33
  -1   1  18   13.29    1.57
   1   1 -18   13.93    1.56
   1   1 -18   14.10    1.40
   1  -1  18   15.14    1.26
   1  -1  18   13.90    1.44
   1   1  18   12.81    1.52
   1   1  18   12.64    1.14
  -1   1 -18   13.84    1.28
   2  -2 -18    1.36    0.78
  -2  -2  18    2.06    0.94
   2   2 -18    2.18    0.82
   2   2 -18    1.59    0.90
  -2   2  18    1.56    0.83
   0  -2 -18    0.47    0.60
   0  -2  18    0.24    0.96
   0  -2  18   -0.06    0.46
   0   2 -18    0.36    0.72
   0   2  18   -0.05    0.85
   0   2 -18    0.24    0.59
   0   2  18   -0.22    0.52
   2  -2  18    1.03    0.43
   2   2  18   -0.43    0.70
   1  -3 -18    8.49    1.05
   1   3 -18    9.23    1.22
  -1  -1  19   18.80    1.37
  -1  -1  19   18.41    1.58
   1  -1 -19   17.98    1.70
  -1   1  19   20.47    1.45
   1   1 -19   17.04    1.45
   1   1 -19   19.54    1.71
  -1   1  19   16.74    1.67
   1  -1  19   10.19    0.94
   1  -1  19    9.76    1.13
   1  -1  19   11.22    0.96
   1   1  19   10.97    0.93
   1   1  19   12.06    1.27
  -1   1 -19    8.83    0.85
   0  -2  19   -0.21    0.38
   0  -2 -19   -0.08    0.48
   0   2 -19   -0.23    0.49
   0   2  19   -0.58    0.65
   0   2  19    0.18    0.46
   1  -1 -20    9.38    1.07
  -1  -1  20    9.83    0.86
  -1   1  20   11.55    1.21
  -1   1  20   10.80    0.96
   1   1 -20   10.13    1.22
;
_shelx_hkl_checksum              7594
_olex2_exptl_crystal_mounting_method 'Paratone oil on kapton head'
_olex2_submission_special_instructions 'No special instructions were received'
#END Tags that were not found in dictionaries
loop_
_space_group_symop_operation_xyz
'x, y, z'
'-x, y, -z'
'x+1/2, y+1/2, z'
'-x+1/2, y+1/2, -z'
'-x, -y, -z'
'x, -y, z'
'-x+1/2, -y+1/2, -z'
'x+1/2, -y+1/2, z'
loop_
_atom_site_label
_atom_site_type_symbol
_atom_site_fract_x
_atom_site_fract_y
_atom_site_fract_z
_atom_site_U_iso_or_equiv
_atom_site_adp_type
_atom_site_occupancy
_atom_site_site_symmetry_order
_atom_site_calc_flag
_atom_site_refinement_flags_posn
_atom_site_refinement_flags_adp
_atom_site_refinement_flags_occupancy
Bi1 Bi 0.2213(5) 0.5000 0.40565(18) 0.0597(16) Uani 1 2 d S T P
Se1 Se 0.2379(9) 0.0000 0.4345(3) 0.0246(15) Uani 1 2 d S T P
loop_
_atom_site_aniso_label
_atom_site_aniso_U_11
_atom_site_aniso_U_22
_atom_site_aniso_U_33
_atom_site_aniso_U_23
_atom_site_aniso_U_13
_atom_site_aniso_U_12
Bi1 0.065(2) 0.066(3) 0.048(2) 0.000 0.0074(14) 0.000
Se1 0.029(3) 0.009(3) 0.037(3) 0.000 0.008(2) 0.000
loop_
_atom_type_symbol
_atom_type_description
_atom_type_scat_dispersion_real
_atom_type_scat_dispersion_imag
_atom_type_scat_source
Bi Bi -4.0111 8.9310 'International Tables Vol C Tables 4.2.6.8 and 6.1.1.4'
Se Se -0.7943 1.1372 'International Tables Vol C Tables 4.2.6.8 and 6.1.1.4'
loop_
_geom_angle_atom_site_label_1
_geom_angle_atom_site_label_2
_geom_angle_atom_site_label_3
_geom_angle
_geom_angle_site_symmetry_1
_geom_angle_site_symmetry_3
Se1 Bi1 Se1 80.39(13) 7_556 .
Se1 Bi1 Se1 160.6(3) . 1_565
Se1 Bi1 Se1 80.39(13) 7_556 1_565
Se1 Bi1 Se1 89.83(12) 1_565 3_455
Se1 Bi1 Se1 87.15(12) . 3
Se1 Bi1 Se1 82.4(2) 7_556 3_455
Se1 Bi1 Se1 87.15(12) 1_565 3
Se1 Bi1 Se1 89.83(12) . 3_455
Se1 Bi1 Se1 79.40(19) 7_556 3
Se1 Bi1 Se1 161.8(3) 3_455 3
Bi1 Se1 Bi1 99.61(13) 7_556 .
Bi1 Se1 Bi1 89.83(12) 1_545 3_545
Bi1 Se1 Bi1 99.61(13) 7_556 1_545
Bi1 Se1 Bi1 89.83(12) . 3_545
Bi1 Se1 Bi1 87.15(12) . 3_445
Bi1 Se1 Bi1 97.6(2) 7_556 3_545
Bi1 Se1 Bi1 87.15(12) 1_545 3_445
Bi1 Se1 Bi1 161.8(3) 3_545 3_445
Bi1 Se1 Bi1 160.6(3) . 1_545
Bi1 Se1 Bi1 100.60(19) 7_556 3_445
loop_
_geom_bond_atom_site_label_1
_geom_bond_atom_site_label_2
_geom_bond_distance
_geom_bond_site_symmetry_2
Bi1 Se1 2.751(6) 7_556
Bi1 Se1 2.9849(12) 1_565
Bi1 Se1 3.071(6) 3_455
Bi1 Se1 2.9849(12) .
Bi1 Se1 3.214(6) 3
Se1 Bi1 2.751(6) 7_556
Se1 Bi1 3.071(6) 3_545
Se1 Bi1 3.214(6) 3_445
Se1 Bi1 2.9849(12) 1_545
