#------------------------------------------------------------------------------
#$Date: 2015-01-27 21:58:39 +0200 (Tue, 27 Jan 2015) $
#$Revision: 130149 $
#$URL: svn://www.crystallography.net/cod/cif/8/10/12/8101258.cif $
#------------------------------------------------------------------------------
#
# This file is available in the Crystallography Open Database (COD),
# http://www.crystallography.net/
#
# All data on this site have been placed in the public domain by the
# contributors.
#
data_8101258
loop_
_publ_author_name
'von Schnering, Hans Georg'
'Kroener, Rudolf'
'Baitinger, Michael'
'Peters, Karl'
'Nesper, Reinhard'
'Grin, Yuri'
_publ_section_title
;
Crystal structure of the defect clathrate Cs~8~Sn~44&#x25CA;2~
;
_journal_issue                   2
_journal_name_full
'Zeitschrift f\"ur Kristallographie - New Crystal Structures'
_journal_page_first              205
_journal_page_last               206
_journal_volume                  215
_journal_year                    2000
_chemical_formula_sum            'Cs8 Sn44'
_chemical_formula_weight         6285.60
_space_group_IT_number           223
_symmetry_cell_setting           cubic
_symmetry_space_group_name_Hall  '-P 4n 2 3'
_symmetry_space_group_name_H-M   'P m -3 n'
_cell_angle_alpha                90.00
_cell_angle_beta                 90.00
_cell_angle_gamma                90.00
_cell_formula_units_Z            1
_cell_length_a                   12.1050(10)
_cell_length_b                   12.1050(10)
_cell_length_c                   12.1050(10)
_cell_measurement_temperature    293(2)
_cell_volume                     1773.8(3)
_diffrn_ambient_temperature      293(2)
_exptl_crystal_density_diffrn    6.107
_cod_database_code               8101258
loop_
_symmetry_equiv_pos_as_xyz
'x, y, z'
'y, z, x'
'z, x, y'
'x, y, -z'
'y, z, -x'
'z, x, -y'
'y, -z, -x'
'z, -x, -y'
'-z, x, -y'
'-x, y, -z'
'-y, z, -x'
'x, -y, -z'
'y+1/2, x+1/2, z+1/2'
'z+1/2, y+1/2, x+1/2'
'x+1/2, z+1/2, y+1/2'
'y+1/2, x+1/2, -z+1/2'
'z+1/2, y+1/2, -x+1/2'
'x+1/2, z+1/2, -y+1/2'
'-z+1/2, y+1/2, -x+1/2'
'-x+1/2, z+1/2, -y+1/2'
'x+1/2, -z+1/2, -y+1/2'
'y+1/2, -x+1/2, -z+1/2'
'z+1/2, -y+1/2, -x+1/2'
'-y+1/2, x+1/2, -z+1/2'
'-x, -y, -z'
'-y, -z, -x'
'-z, -x, -y'
'-x, -y, z'
'-y, -z, x'
'-z, -x, y'
'-y, z, x'
'-z, x, y'
'z, -x, y'
'x, -y, z'
'y, -z, x'
'-x, y, z'
'-y-1/2, -x-1/2, -z-1/2'
'-z-1/2, -y-1/2, -x-1/2'
'-x-1/2, -z-1/2, -y-1/2'
'-y-1/2, -x-1/2, z-1/2'
'-z-1/2, -y-1/2, x-1/2'
'-x-1/2, -z-1/2, y-1/2'
'z-1/2, -y-1/2, x-1/2'
'x-1/2, -z-1/2, y-1/2'
'-x-1/2, z-1/2, y-1/2'
'-y-1/2, x-1/2, z-1/2'
'-z-1/2, y-1/2, x-1/2'
'y-1/2, -x-1/2, z-1/2'
loop_
_atom_site_label
_atom_site_type_symbol
_atom_site_fract_x
_atom_site_fract_y
_atom_site_fract_z
_atom_site_U_iso_or_equiv
_atom_site_adp_type
_atom_site_occupancy
_atom_site_symmetry_multiplicity
_atom_site_Wyckoff_symbol
_atom_site_calc_flag
_atom_site_refinement_flags
_atom_site_disorder_assembly
_atom_site_disorder_group
Cs1 Cs 0.0000 0.0000 0.0000 0.018(1) Uani 1 2 a d S . .
Cs2 Cs 0.2500 0.5000 0.0000 0.043(1) Uani 1 4 d d S . .
Sn1 Sn 0.2500 0.0000 0.5000 0.017(2) Uani 0.66(2) 4 c d SP . .
Sn2 Sn 0.1831(1) 0.1831(1) 0.1831(1) 0.0242(9) Uani 1 16 i d S . .
Sn3 Sn 0.0000 0.3159(2) 0.1191(2) 0.046(1) Uani 1 26 k d S . .
loop_
_atom_site_aniso_label
_atom_site_aniso_U_11
_atom_site_aniso_U_22
_atom_site_aniso_U_33
_atom_site_aniso_U_23
_atom_site_aniso_U_13
_atom_site_aniso_U_12
Cs1 0.018(1) 0.018(1) 0.018(1) 0.000 0.000 0.000
Cs2 0.031(2) 0.048(2) 0.048(2) 0.000 0.000 0.000
Sn1 0.017(3) 0.017(2) 0.017(2) 0.000 0.000 0.000
Sn2 0.0242(9) 0.0242(9) 0.0242(9) -0.0036(5) -0.0036(5) -0.0036(5)
Sn3 0.021(1) 0.079(2) 0.038(2) 0.031(1) 0.000 0.000
loop_
_geom_bond_atom_site_label_1
_geom_bond_atom_site_label_2
_geom_bond_distance
_geom_bond_site_symmetry_2
_geom_bond_publ_flag
Cs1 Sn2 3.839(2) . ?
Cs1 Sn2 3.839(2) 25 ?
Cs1 Sn2 3.839(2) 33 ?
Cs1 Sn2 3.839(2) 9 ?
Cs1 Sn2 3.839(2) 31 ?
Cs1 Sn2 3.839(2) 7 ?
Cs1 Sn2 3.839(2) 28 ?
Cs1 Sn2 3.839(2) 4 ?
Cs1 Sn3 4.087(3) 3 ?
Cs1 Sn3 4.087(3) 2 ?
Cs1 Sn3 4.087(3) . ?
Cs1 Sn3 4.087(3) 27 ?
Cs1 Sn3 4.087(3) 26 ?
Cs1 Sn3 4.087(3) 25 ?
Cs1 Sn3 4.087(3) 7 ?
Cs1 Sn3 4.087(3) 30 ?
Cs1 Sn3 4.087(3) 4 ?
Cs1 Sn3 4.087(3) 31 ?
Cs1 Sn3 4.087(3) 6 ?
Cs1 Sn3 4.087(3) 28 ?
Cs2 Sn3 4.0250(17) 18 ?
Cs2 Sn3 4.0250(17) 4 ?
Cs2 Sn3 4.0250(17) 15_554 ?
Cs2 Sn3 4.0250(17) 39_666 ?
Cs2 Sn3 4.0250(17) . ?
Cs2 Sn3 4.0250(17) 42_665 ?
Cs2 Sn3 4.0250(17) 28_565 ?
Cs2 Sn3 4.0250(17) 25_565 ?
Cs2 Sn1 4.2798(4) 27_665 ?
Cs2 Sn1 4.2798(4) 26_565 ?
Cs2 Sn1 4.2798(4) 3 ?
Cs2 Sn1 4.2798(4) 2 ?
Cs2 Sn2 4.5037(8) 19 ?
Cs2 Sn2 4.5037(9) 4 ?
Cs2 Sn2 4.5037(8) 40_665 ?
Cs2 Sn2 4.5037(8) 33_565 ?
Cs2 Sn2 4.5037(8) 37_666 ?
Cs2 Sn2 4.5037(8) . ?
Cs2 Sn2 4.5037(8) 45_665 ?
Cs2 Sn2 4.5037(8) 7_565 ?
Sn1 Sn3 2.734(3) 38_666 ?
Sn1 Sn3 2.734(3) 3 ?
Sn1 Sn3 2.734(3) 19_545 ?
Sn1 Sn3 2.734(3) 6_556 ?
Sn1 Cs2 4.2798(4) 27_556 ?
Sn1 Cs2 4.2798(4) 26_656 ?
Sn1 Cs2 4.2798(4) 3 ?
Sn1 Cs2 4.2798(4) 2 ?
Sn1 Sn2 4.5037(9) 40_666 ?
Sn1 Sn2 4.5037(8) 33 ?
Sn1 Sn2 4.5037(9) 19_545 ?
Sn1 Sn2 4.5037(9) 4_556 ?
Sn1 Sn2 4.5037(9) 37_666 ?
Sn1 Sn2 4.5037(9) . ?
Sn1 Sn2 4.5037(9) 45_656 ?
Sn1 Sn2 4.5037(9) 7_556 ?
Sn1 Sn3 4.992(2) 43_666 ?
Sn1 Sn3 4.992(2) 14_545 ?
Sn1 Sn3 4.992(2) 30 ?
Sn1 Sn3 4.992(2) 27_556 ?
Sn2 Sn2 2.805(5) 37_666 ?
Sn2 Sn3 2.8459(18) 3 ?
Sn2 Sn3 2.8459(18) 2 ?
Sn2 Sn3 2.8459(18) . ?
Sn2 Sn2 4.433(3) 33 ?
Sn2 Sn2 4.433(3) 31 ?
Sn2 Sn2 4.433(3) 4 ?
Sn2 Cs2 4.5037(8) 2 ?
Sn2 Sn1 4.5037(8) 3 ?
Sn2 Sn1 4.5037(8) 2 ?
Sn2 Cs2 4.5037(8) 3 ?
Sn2 Sn3 4.522(2) 39_666 ?
Sn2 Sn3 4.522(2) 38_666 ?
Sn2 Sn3 4.522(2) 37_666 ?
Sn2 Sn3 4.569(3) 7 ?
Sn2 Sn3 4.569(3) 30 ?
Sn2 Sn3 4.569(3) 4 ?
Sn3 Sn1 2.734(3) 2 ?
Sn3 Sn2 2.8459(18) 31 ?
Sn3 Sn3 2.883(5) 4 ?
Sn3 Cs2 4.0250(17) 25_565 ?
Sn3 Sn3 4.456(6) 28_565 ?
Sn3 Sn3 4.469(5) 37_666 ?
Sn3 Sn3 4.469(5) 16_455 ?
Sn3 Sn2 4.522(2) 37_666 ?
Sn3 Sn2 4.522(2) 21_455 ?
Sn3 Sn2 4.569(3) 9 ?
Sn3 Sn2 4.569(3) 4 ?
Sn3 Cs2 4.680(2) 3 ?
Sn3 Sn3 4.731(4) 31 ?
Sn3 Sn3 4.731(4) 30 ?
Sn3 Sn3 4.731(4) 3 ?
Sn3 Sn3 4.731(4) 2 ?
Sn3 Sn1 4.992(2) 26_565 ?
