#------------------------------------------------------------------------------
#$Date: 2016-02-13 21:28:24 +0200 (Sat, 13 Feb 2016) $
#$Revision: 176429 $
#$URL: svn://www.crystallography.net/cod/cif/4/03/11/4031195.cif $
#------------------------------------------------------------------------------
#
# This file is available in the Crystallography Open Database (COD),
# http://www.crystallography.net/
#
# All data on this site have been placed in the public domain by the
# contributors.
#
data_4031195
loop_
_publ_author_name
'Burns, J.H.'
'Peterson, J.R.'
'Baybarz, R.D.'
_publ_section_title
;
 Hexagonal and orthorhombic crystal structures of californium trichloride
;
_journal_name_full               'Journal of Inorganic and Nuclear Chemistry'
_journal_page_first              1171
_journal_page_last               1177
_journal_volume                  35
_journal_year                    1973
_chemical_formula_sum            'Cf Cl3'
_chemical_name_systematic        'Cf Cl3'
_space_group_IT_number           176
_symmetry_space_group_name_Hall  '-P 6c'
_symmetry_space_group_name_H-M   'P 63/m'
_cell_angle_alpha                90
_cell_angle_beta                 90
_cell_angle_gamma                120
_cell_formula_units_Z            2
_cell_length_a                   7.379
_cell_length_b                   7.379
_cell_length_c                   4.09
_cell_volume                     192.863
_citation_journal_id_ASTM        JINCAO
_cod_data_source_file            Burns_JINCAO_1973_1438.cif
_cod_data_source_block           Cf1Cl3
_cod_original_formula_sum        'Cf1 Cl3'
_cod_database_code               4031195
loop_
_symmetry_equiv_pos_as_xyz
x,y,z
x-y,x,z+1/2
-y,x-y,z
-x,-y,z+1/2
-x+y,-x,z
y,-x+y,z+1/2
-x,-y,-z
-x+y,-x,-z-1/2
y,-x+y,-z
x,y,-z-1/2
x-y,x,-z
-y,x-y,-z-1/2
loop_
_atom_site_label
_atom_site_type_symbol
_atom_site_fract_x
_atom_site_fract_y
_atom_site_fract_z
_atom_site_occupancy
_atom_site_U_iso_or_equiv
Cf1 Cf+3 0.3333 0.6667 0.25 1 0.0
Cl1 Cl-1 0.3902 0.3019 0.25 1 0.0
