#------------------------------------------------------------------------------
#$Date: 2015-07-11 16:34:29 +0300 (Sat, 11 Jul 2015) $
#$Revision: 144954 $
#$URL: svn://www.crystallography.net/cod/cif/1/52/42/1524247.cif $
#------------------------------------------------------------------------------
#
# This file is available in the Crystallography Open Database (COD),
# http://www.crystallography.net/
#
# All data on this site have been placed in the public domain by the
# contributors.
#
data_1524247
loop_
_publ_author_name
'Davies, D.A.'
'Owen, E.A.'
_publ_section_title
;
 An X-ray investigation on the solid solutions of certain elements in zinc
;
_journal_name_full               'British Journal of Applied Physics'
_journal_page_first              1309
_journal_page_last               1314
_journal_volume                  15
_journal_year                    1964
_chemical_formula_sum            'Cu0.025 Zn0.975'
_chemical_name_systematic        '(Cu0.025 Zn0.975)'
_space_group_IT_number           194
_symmetry_space_group_name_Hall  '-P 6c 2c'
_symmetry_space_group_name_H-M   'P 63/m m c'
_cell_angle_alpha                90
_cell_angle_beta                 90
_cell_angle_gamma                120
_cell_formula_units_Z            2
_cell_length_a                   2.6773
_cell_length_b                   2.6773
_cell_length_c                   4.8317
_cell_volume                     29.993
_citation_journal_id_ASTM        BJAPAJ
_cod_data_source_file            Davies_BJAPAJ_1964_1655.cif
_cod_data_source_block           Cu0.025Zn0.975
_cod_original_cell_volume        29.99333
_cod_database_code               1524247
loop_
_symmetry_equiv_pos_as_xyz
x,y,z
x-y,x,z+1/2
-y,x-y,z
-x,-y,z+1/2
-x+y,-x,z
y,-x+y,z+1/2
-y,-x,-z+1/2
x-y,-y,-z
x,x-y,-z+1/2
y,x,-z
-x+y,y,-z+1/2
-x,-x+y,-z
-x,-y,-z
-x+y,-x,-z-1/2
y,-x+y,-z
x,y,-z-1/2
x-y,x,-z
-y,x-y,-z-1/2
y,x,z-1/2
-x+y,y,z
-x,-x+y,z-1/2
-y,-x,z
x-y,-y,z-1/2
x,x-y,z
loop_
_atom_site_label
_atom_site_type_symbol
_atom_site_fract_x
_atom_site_fract_y
_atom_site_fract_z
_atom_site_occupancy
_atom_site_U_iso_or_equiv
Zn1 Zn 0.3333 0.6667 0.25 0.975 0.0
Cu1 Cu 0.3333 0.6667 0.25 0.025 0.0
