#------------------------------------------------------------------------------
#$Date: 2015-07-11 18:08:34 +0300 (Sat, 11 Jul 2015) $
#$Revision: 145543 $
#$URL: svn://www.crystallography.net/cod/cif/1/52/47/1524717.cif $
#------------------------------------------------------------------------------
#
# This file is available in the Crystallography Open Database (COD),
# http://www.crystallography.net/
#
# All data on this site have been placed in the public domain by the
# contributors.
#
data_1524717
loop_
_publ_author_name
'Koehler, W.C.'
'Child, H.R.'
'Cable, J.W.'
'Moon, R.M.'
_publ_section_title
;
 Magnetic properties of some alloys of thorium with holmium and erbium
;
_journal_name_full               'Journal of Applied Physics'
_journal_page_first              1384
_journal_page_last               1385
_journal_volume                  38
_journal_year                    1967
_chemical_formula_sum            'Er0.8 Th0.2'
_chemical_name_systematic        '(Er0.8 Th0.2)'
_space_group_IT_number           194
_symmetry_space_group_name_Hall  '-P 6c 2c'
_symmetry_space_group_name_H-M   'P 63/m m c'
_cell_angle_alpha                90
_cell_angle_beta                 90
_cell_angle_gamma                120
_cell_formula_units_Z            2
_cell_length_a                   3.57
_cell_length_b                   3.57
_cell_length_c                   5.65
_cell_volume                     62.361
_citation_journal_id_ASTM        JAPIAU
_cod_data_source_file            Koehler_JAPIAU_1967_1783.cif
_cod_data_source_block           Er0.8Th0.2
_cod_original_cell_volume        62.36135
_cod_database_code               1524717
loop_
_symmetry_equiv_pos_as_xyz
x,y,z
x-y,x,z+1/2
-y,x-y,z
-x,-y,z+1/2
-x+y,-x,z
y,-x+y,z+1/2
-y,-x,-z+1/2
x-y,-y,-z
x,x-y,-z+1/2
y,x,-z
-x+y,y,-z+1/2
-x,-x+y,-z
-x,-y,-z
-x+y,-x,-z-1/2
y,-x+y,-z
x,y,-z-1/2
x-y,x,-z
-y,x-y,-z-1/2
y,x,z-1/2
-x+y,y,z
-x,-x+y,z-1/2
-y,-x,z
x-y,-y,z-1/2
x,x-y,z
loop_
_atom_site_label
_atom_site_type_symbol
_atom_site_fract_x
_atom_site_fract_y
_atom_site_fract_z
_atom_site_occupancy
_atom_site_U_iso_or_equiv
Th1 Th 0.3333 0.6667 0.25 0.2 0.0
Er1 Er 0.3333 0.6667 0.25 0.8 0.0
