#------------------------------------------------------------------------------
#$Date: 2016-02-13 21:28:24 +0200 (Sat, 13 Feb 2016) $
#$Revision: 176429 $
#$URL: svn://www.crystallography.net/cod/cif/1/52/45/1524523.cif $
#------------------------------------------------------------------------------
#
# This file is available in the Crystallography Open Database (COD),
# http://www.crystallography.net/
#
# All data on this site have been placed in the public domain by the
# contributors.
#
data_1524523
loop_
_publ_author_name
'Havinga, E.E.'
'Damsma, H.'
'Hokkeling, P.'
_publ_section_title
;
 Compounds and pseudo-binary alloys with the Cu Al2 (C16)-type structure.
 I. Preparation and X-ray results
;
_journal_name_full               'Journal of the Less-Common Metals'
_journal_page_first              169
_journal_page_last               186
_journal_volume                  27
_journal_year                    1972
_chemical_formula_sum            'Hf2 Ni'
_chemical_name_systematic        'Ni Hf2'
_space_group_IT_number           140
_symmetry_space_group_name_Hall  '-I 4 2c'
_symmetry_space_group_name_H-M   'I 4/m c m'
_cell_angle_alpha                90
_cell_angle_beta                 90
_cell_angle_gamma                90
_cell_formula_units_Z            4
_cell_length_a                   6.405
_cell_length_b                   6.405
_cell_length_c                   5.252
_cell_volume                     215.458
_citation_journal_id_ASTM        JCOMAH
_cod_data_source_file            Havinga_JCOMAH_1972_1330.cif
_cod_data_source_block           Hf2Ni1
_cod_original_cell_volume        215.4582
_cod_original_formula_sum        'Hf2 Ni1'
_cod_database_code               1524523
loop_
_symmetry_equiv_pos_as_xyz
x,y,z
-y,x,z
-x,-y,z
y,-x,z
x,-y,-z+1/2
y,x,-z+1/2
-x,y,-z+1/2
-y,-x,-z+1/2
-x,-y,-z
y,-x,-z
x,y,-z
-y,x,-z
-x,y,z-1/2
-y,-x,z-1/2
x,-y,z-1/2
y,x,z-1/2
x+1/2,y+1/2,z+1/2
-y+1/2,x+1/2,z+1/2
-x+1/2,-y+1/2,z+1/2
y+1/2,-x+1/2,z+1/2
x+1/2,-y+1/2,-z+1
y+1/2,x+1/2,-z+1
-x+1/2,y+1/2,-z+1
-y+1/2,-x+1/2,-z+1
-x+1/2,-y+1/2,-z+1/2
y+1/2,-x+1/2,-z+1/2
x+1/2,y+1/2,-z+1/2
-y+1/2,x+1/2,-z+1/2
-x+1/2,y+1/2,z
-y+1/2,-x+1/2,z
x+1/2,-y+1/2,z
y+1/2,x+1/2,z
loop_
_atom_site_label
_atom_site_type_symbol
_atom_site_fract_x
_atom_site_fract_y
_atom_site_fract_z
_atom_site_occupancy
_atom_site_U_iso_or_equiv
Ni1 Ni 0 0 0.25 1 0.0
Hf1 Hf 0.163 0.663 0 1 0.0
