#------------------------------------------------------------------------------
#$Date: 2016-02-13 21:28:24 +0200 (Sat, 13 Feb 2016) $
#$Revision: 176429 $
#$URL: svn://www.crystallography.net/cod/cif/1/52/49/1524965.cif $
#------------------------------------------------------------------------------
#
# This file is available in the Crystallography Open Database (COD),
# http://www.crystallography.net/
#
# All data on this site have been placed in the public domain by the
# contributors.
#
data_1524965
loop_
_publ_author_name
'Murray, J.R.'
_publ_section_title
;
 The crystal structure of some thorium compounds
;
_journal_name_full               'Journal of the Institute of Metals'
_journal_page_first              91
_journal_page_last               96
_journal_volume                  84
_journal_year                    1956
_chemical_formula_sum            'Cu2 Th'
_chemical_name_systematic        'Cu2 Th'
_space_group_IT_number           191
_symmetry_space_group_name_Hall  '-P 6 2'
_symmetry_space_group_name_H-M   'P 6/m m m'
_cell_angle_alpha                90
_cell_angle_beta                 90
_cell_angle_gamma                120
_cell_formula_units_Z            1
_cell_length_a                   4.37
_cell_length_b                   4.37
_cell_length_c                   3.45
_cell_volume                     57.057
_citation_journal_id_ASTM        JIMEAP
_cod_data_source_file            Murray_JIMEAP_1956_1630.cif
_cod_data_source_block           Cu2Th1
_cod_original_cell_volume        57.05748
_cod_original_formula_sum        'Cu2 Th1'
_cod_database_code               1524965
loop_
_symmetry_equiv_pos_as_xyz
x,y,z
x-y,x,z
-y,x-y,z
-x,-y,z
-x+y,-x,z
y,-x+y,z
-y,-x,-z
x-y,-y,-z
x,x-y,-z
y,x,-z
-x+y,y,-z
-x,-x+y,-z
-x,-y,-z
-x+y,-x,-z
y,-x+y,-z
x,y,-z
x-y,x,-z
-y,x-y,-z
y,x,z
-x+y,y,z
-x,-x+y,z
-y,-x,z
x-y,-y,z
x,x-y,z
loop_
_atom_site_label
_atom_site_type_symbol
_atom_site_fract_x
_atom_site_fract_y
_atom_site_fract_z
_atom_site_occupancy
_atom_site_U_iso_or_equiv
Th1 Th 0 0 0 1 0.0
Cu1 Cu 0.3333 0.6667 0.5 1 0.0
