#------------------------------------------------------------------------------
#$Date: 2016-02-13 21:28:24 +0200 (Sat, 13 Feb 2016) $
#$Revision: 176429 $
#$URL: svn://www.crystallography.net/cod/cif/1/52/40/1524065.cif $
#------------------------------------------------------------------------------
#
# This file is available in the Crystallography Open Database (COD),
# http://www.crystallography.net/
#
# All data on this site have been placed in the public domain by the
# contributors.
#
data_1524065
loop_
_publ_author_name
'Berlin, B.'
_publ_section_title
;
 Formationn of the intermediate phases of the system thorium-copper in
 liquid sodium
;
_journal_name_full               'Journal of the Less-Common Metals'
_journal_page_first              337
_journal_page_last               348
_journal_volume                  29
_journal_year                    1972
_chemical_formula_sum            'Cu Th2'
_chemical_name_systematic        'Cu Th2'
_space_group_IT_number           191
_symmetry_space_group_name_Hall  '-P 6 2'
_symmetry_space_group_name_H-M   'P 6/m m m'
_cell_angle_alpha                90
_cell_angle_beta                 90
_cell_angle_gamma                120
_cell_formula_units_Z            1
_cell_length_a                   4.3789
_cell_length_b                   4.3789
_cell_length_c                   3.4877
_cell_volume                     57.916
_citation_journal_id_ASTM        JCOMAH
_cod_data_source_file            Berlin_JCOMAH_1972_1628.cif
_cod_data_source_block           Cu1Th2
_cod_original_cell_volume        57.91617
_cod_original_formula_sum        'Cu1 Th2'
_cod_database_code               1524065
loop_
_symmetry_equiv_pos_as_xyz
x,y,z
x-y,x,z
-y,x-y,z
-x,-y,z
-x+y,-x,z
y,-x+y,z
-y,-x,-z
x-y,-y,-z
x,x-y,-z
y,x,-z
-x+y,y,-z
-x,-x+y,-z
-x,-y,-z
-x+y,-x,-z
y,-x+y,-z
x,y,-z
x-y,x,-z
-y,x-y,-z
y,x,z
-x+y,y,z
-x,-x+y,z
-y,-x,z
x-y,-y,z
x,x-y,z
loop_
_atom_site_label
_atom_site_type_symbol
_atom_site_fract_x
_atom_site_fract_y
_atom_site_fract_z
_atom_site_occupancy
_atom_site_U_iso_or_equiv
Th1 Th 0.3333 0.6667 0.5 1 0.0
Cu1 Cu 0 0 0 1 0.0
