#------------------------------------------------------------------------------
#$Date: 2016-02-13 21:28:24 +0200 (Sat, 13 Feb 2016) $
#$Revision: 176429 $
#$URL: svn://www.crystallography.net/cod/cif/1/52/49/1524985.cif $
#------------------------------------------------------------------------------
#
# This file is available in the Crystallography Open Database (COD),
# http://www.crystallography.net/
#
# All data on this site have been placed in the public domain by the
# contributors.
#
data_1524985
loop_
_publ_author_name
'Ning Yuantao'
'Zhou Xinming'
'Zheng Yun'
'Chen Nianyi'
'Xu Hua'
'Zhu Jianzhong'
_publ_section_title
;
 The prediction and synthesis of some new intermetallic compounds between
 transition metals and rare-earth metals
;
_journal_name_full               'Xiyou Jinshu'
_journal_page_first              31
_journal_page_last               34
_journal_volume                  4
_journal_year                    1985
_chemical_formula_sum            'Dy Ir3'
_chemical_name_systematic        'Dy Ir3'
_space_group_IT_number           221
_symmetry_space_group_name_Hall  '-P 4 2 3'
_symmetry_space_group_name_H-M   'P m -3 m'
_cell_angle_alpha                90
_cell_angle_beta                 90
_cell_angle_gamma                90
_cell_formula_units_Z            1
_cell_length_a                   3.842
_cell_length_b                   3.842
_cell_length_c                   3.842
_cell_volume                     56.712
_citation_journal_id_ASTM        XIJID9
_cod_data_source_file            NingYuantao_XIJID9_1985_1703.cif
_cod_data_source_block           Dy1Ir3
_cod_original_cell_volume        56.71162
_cod_original_formula_sum        'Dy1 Ir3'
_cod_database_code               1524985
loop_
_symmetry_equiv_pos_as_xyz
x,y,z
-y,x,z
-x,-y,z
y,-x,z
x,-y,-z
y,x,-z
-x,y,-z
-y,-x,-z
z,x,y
-x,z,y
-z,-x,y
x,-z,y
z,-x,-y
x,z,-y
-z,x,-y
-x,-z,-y
y,z,x
y,-z,-x
z,y,-x
-y,z,-x
-z,-y,-x
-y,-z,x
z,-y,x
-z,y,x
-x,-y,-z
y,-x,-z
x,y,-z
-y,x,-z
-x,y,z
-y,-x,z
x,-y,z
y,x,z
-z,-x,-y
x,-z,-y
z,x,-y
-x,z,-y
-z,x,y
-x,-z,y
z,-x,y
x,z,y
-y,-z,-x
-y,z,x
-z,-y,x
y,-z,x
z,y,x
y,z,-x
-z,y,-x
z,-y,-x
loop_
_atom_site_label
_atom_site_type_symbol
_atom_site_fract_x
_atom_site_fract_y
_atom_site_fract_z
_atom_site_occupancy
_atom_site_U_iso_or_equiv
Ir1 Ir 0 0.5 0.5 1 0.0
Dy1 Dy 0 0 0 1 0.0
