#------------------------------------------------------------------------------
#$Date: 2016-02-13 21:28:24 +0200 (Sat, 13 Feb 2016) $
#$Revision: 176429 $
#$URL: svn://www.crystallography.net/cod/cif/1/52/42/1524224.cif $
#------------------------------------------------------------------------------
#
# This file is available in the Crystallography Open Database (COD),
# http://www.crystallography.net/
#
# All data on this site have been placed in the public domain by the
# contributors.
#
data_1524224
loop_
_publ_author_name
'Chuntonov, K.A.'
'Grin', Yu.'
'Yatsenko, S.P.'
'Orlov, A.N.'
'Yarmolyuk, Ya.P.'
_publ_section_title
;
 Die Kristallstruktur von Cs In3
;
_journal_name_full               'Journal of the Less-Common Metals'
_journal_page_first              15
_journal_page_last               21
_journal_volume                  99
_journal_year                    1984
_chemical_formula_sum            'Cs In3'
_chemical_name_systematic        'Cs In3'
_space_group_IT_number           119
_symmetry_space_group_name_Hall  'I -4 -2'
_symmetry_space_group_name_H-M   'I -4 m 2'
_cell_angle_alpha                90
_cell_angle_beta                 90
_cell_angle_gamma                90
_cell_formula_units_Z            6
_cell_length_a                   7.047
_cell_length_b                   7.047
_cell_length_c                   16.803
_cell_volume                     834.440
_citation_journal_id_ASTM        JCOMAH
_cod_data_source_file            Chuntonov_JCOMAH_1984_1390.cif
_cod_data_source_block           Cs1In3
_cod_original_cell_volume        834.4404
_cod_original_formula_sum        'Cs1 In3'
_cod_database_code               1524224
loop_
_symmetry_equiv_pos_as_xyz
x,y,z
y,-x,-z
-x,-y,z
-y,x,-z
-x,y,z
y,x,-z
x,-y,z
-y,-x,-z
x+1/2,y+1/2,z+1/2
y+1/2,-x+1/2,-z+1/2
-x+1/2,-y+1/2,z+1/2
-y+1/2,x+1/2,-z+1/2
-x+1/2,y+1/2,z+1/2
y+1/2,x+1/2,-z+1/2
x+1/2,-y+1/2,z+1/2
-y+1/2,-x+1/2,-z+1/2
loop_
_atom_site_label
_atom_site_type_symbol
_atom_site_fract_x
_atom_site_fract_y
_atom_site_fract_z
_atom_site_occupancy
_atom_site_U_iso_or_equiv
In2 In 0.6966 0 0.6084 1 0.0
In1 In 0 0 0.5 1 0.0
In3 In 0.7934 0 0.7792 1 0.0
Cs2 Cs 0 0.5 0.6278 1 0.0
Cs1 Cs 0 0 0 1 0.0
