#------------------------------------------------------------------------------
#$Date: 2016-02-13 21:28:24 +0200 (Sat, 13 Feb 2016) $
#$Revision: 176429 $
#$URL: svn://www.crystallography.net/cod/cif/1/52/44/1524409.cif $
#------------------------------------------------------------------------------
#
# This file is available in the Crystallography Open Database (COD),
# http://www.crystallography.net/
#
# All data on this site have been placed in the public domain by the
# contributors.
#
data_1524409
loop_
_publ_author_name
'Gignoux, D.'
'Paccard, D.'
'Rossat-Mignod, J.'
'Tscheou, F.'
_publ_section_title
;
 Importance of the crystgal field on the magnetic moment orientation in
 the equiatomic rare earth-nickel R Ni compounds (R=Tb to Tm)
;
_journal_name_full
;
Rare Earths in Modern Science and Technology, (Rare Earth Res. Conf.)
;
_journal_page_first              596
_journal_page_last               604
_journal_volume                  2
_journal_year                    1973
_chemical_formula_sum            'Er Ni'
_chemical_name_systematic        'Er Ni'
_space_group_IT_number           62
_symmetry_space_group_name_Hall  '-P 2ac 2n'
_symmetry_space_group_name_H-M   'P n m a'
_cell_angle_alpha                90
_cell_angle_beta                 90
_cell_angle_gamma                90
_cell_formula_units_Z            4
_cell_length_a                   6.99
_cell_length_b                   4.12
_cell_length_c                   5.41
_cell_volume                     155.802
_citation_journal_id_ASTM        41VWAS
_cod_data_source_file            Gignoux_41VWAS_1973_1748.cif
_cod_data_source_block           Er1Ni1
_cod_original_cell_volume        155.8015
_cod_original_formula_sum        'Er1 Ni1'
_cod_database_code               1524409
loop_
_symmetry_equiv_pos_as_xyz
x,y,z
-x+1/2,-y,z+1/2
x+1/2,-y+1/2,-z+1/2
-x,y+1/2,-z
-x,-y,-z
x-1/2,y,-z-1/2
-x-1/2,y-1/2,z-1/2
x,-y-1/2,z
loop_
_atom_site_label
_atom_site_type_symbol
_atom_site_fract_x
_atom_site_fract_y
_atom_site_fract_z
_atom_site_occupancy
_atom_site_U_iso_or_equiv
Er1 Er 0.181 0.25 0.128 1 0.0
Ni1 Ni 0.037 0.25 0.615 1 0.0
