#------------------------------------------------------------------------------
#$Date: 2015-07-11 17:38:11 +0300 (Sat, 11 Jul 2015) $
#$Revision: 145349 $
#$URL: svn://www.crystallography.net/cod/cif/1/52/45/1524559.cif $
#------------------------------------------------------------------------------
#
# This file is available in the Crystallography Open Database (COD),
# http://www.crystallography.net/
#
# All data on this site have been placed in the public domain by the
# contributors.
#
data_1524559
loop_
_publ_author_name
'Hornstra, J.'
'Buschow, K.H.J.'
_publ_section_title
;
 The crystal structure of Yb Cu6.5
;
_journal_name_full               'Journal of the Less-Common Metals'
_journal_page_first              123
_journal_page_last               127
_journal_volume                  27
_journal_year                    1972
_chemical_formula_sum            'Cu5.38 Yb0.82'
_chemical_name_systematic        'Cu5.38 Yb0.82'
_space_group_IT_number           191
_symmetry_space_group_name_Hall  '-P 6 2'
_symmetry_space_group_name_H-M   'P 6/m m m'
_cell_angle_alpha                90
_cell_angle_beta                 90
_cell_angle_gamma                120
_cell_formula_units_Z            1
_cell_length_a                   5.004
_cell_length_b                   5.004
_cell_length_c                   4.118
_cell_volume                     89.300
_citation_journal_id_ASTM        JCOMAH
_cod_data_source_file            Hornstra_JCOMAH_1972_1651.cif
_cod_data_source_block           Cu5.38Yb0.82
_cod_original_cell_volume        89.30003
_cod_database_code               1524559
loop_
_symmetry_equiv_pos_as_xyz
x,y,z
x-y,x,z
-y,x-y,z
-x,-y,z
-x+y,-x,z
y,-x+y,z
-y,-x,-z
x-y,-y,-z
x,x-y,-z
y,x,-z
-x+y,y,-z
-x,-x+y,-z
-x,-y,-z
-x+y,-x,-z
y,-x+y,-z
x,y,-z
x-y,x,-z
-y,x-y,-z
y,x,z
-x+y,y,z
-x,-x+y,z
-y,-x,z
x-y,-y,z
x,x-y,z
loop_
_atom_site_label
_atom_site_type_symbol
_atom_site_fract_x
_atom_site_fract_y
_atom_site_fract_z
_atom_site_occupancy
_atom_site_U_iso_or_equiv
Yb1 Yb 0 0 0 0.82 0.0
Cu2 Cu 0 0 0.32 0.18 0.0
Cu3 Cu 0.5 0 0.5 1 0.0
Cu4 Cu 0.3 0.6 0 0.26 0.0
Cu1 Cu 0.3333 0.6667 0 0.23 0.0
