#------------------------------------------------------------------------------
#$Date: 2015-07-11 17:03:06 +0300 (Sat, 11 Jul 2015) $
#$Revision: 145119 $
#$URL: svn://www.crystallography.net/cod/cif/1/52/43/1524370.cif $
#------------------------------------------------------------------------------
#
# This file is available in the Crystallography Open Database (COD),
# http://www.crystallography.net/
#
# All data on this site have been placed in the public domain by the
# contributors.
#
data_1524370
loop_
_publ_author_name
'Fluekiger, R.'
'Heiniger, F.'
'Junod, A.'
'Muller, J.'
'Spitzli, P.'
'Staudenmann, J.L.'
_publ_section_title
;
 Chaleur specifique et supraconductivite dans de alliages de structure A15
 a base de chrome
;
_journal_name_full               'Journal of Physics and Chemistry of Solids'
_journal_page_first              459
_journal_page_last               463
_journal_volume                  32
_journal_year                    1971
_chemical_formula_sum            'Cr2.88 Ru1.12'
_chemical_name_systematic        '(Cr2.88 Ru0.12) Ru'
_space_group_IT_number           223
_symmetry_space_group_name_Hall  '-P 4n 2 3'
_symmetry_space_group_name_H-M   'P m -3 n'
_cell_angle_alpha                90
_cell_angle_beta                 90
_cell_angle_gamma                90
_cell_formula_units_Z            2
_cell_length_a                   4.679
_cell_length_b                   4.679
_cell_length_c                   4.679
_cell_volume                     102.438
_citation_journal_id_ASTM        JPCSAW
_cod_data_source_file            Fluekiger_JPCSAW_1971_1366.cif
_cod_data_source_block           Cr2.88Ru1.12
_cod_original_cell_volume        102.4375
_cod_database_code               1524370
loop_
_symmetry_equiv_pos_as_xyz
x,y,z
-y+1/2,x+1/2,z+1/2
-x,-y,z
y+1/2,-x+1/2,z+1/2
x,-y,-z
y+1/2,x+1/2,-z+1/2
-x,y,-z
-y+1/2,-x+1/2,-z+1/2
z,x,y
-x+1/2,z+1/2,y+1/2
-z,-x,y
x+1/2,-z+1/2,y+1/2
z,-x,-y
x+1/2,z+1/2,-y+1/2
-z,x,-y
-x+1/2,-z+1/2,-y+1/2
y,z,x
y,-z,-x
z+1/2,y+1/2,-x+1/2
-y,z,-x
-z+1/2,-y+1/2,-x+1/2
-y,-z,x
z+1/2,-y+1/2,x+1/2
-z+1/2,y+1/2,x+1/2
-x,-y,-z
y-1/2,-x-1/2,-z-1/2
x,y,-z
-y-1/2,x-1/2,-z-1/2
-x,y,z
-y-1/2,-x-1/2,z-1/2
x,-y,z
y-1/2,x-1/2,z-1/2
-z,-x,-y
x-1/2,-z-1/2,-y-1/2
z,x,-y
-x-1/2,z-1/2,-y-1/2
-z,x,y
-x-1/2,-z-1/2,y-1/2
z,-x,y
x-1/2,z-1/2,y-1/2
-y,-z,-x
-y,z,x
-z-1/2,-y-1/2,x-1/2
y,-z,x
z-1/2,y-1/2,x-1/2
y,z,-x
-z-1/2,y-1/2,-x-1/2
z-1/2,-y-1/2,-x-1/2
loop_
_atom_site_label
_atom_site_type_symbol
_atom_site_fract_x
_atom_site_fract_y
_atom_site_fract_z
_atom_site_occupancy
_atom_site_U_iso_or_equiv
Ru2 Ru 0 0 0 1 0.0
Cr1 Cr 0.25 0 0.5 0.96 0.0
Ru1 Ru 0.25 0 0.5 0.04 0.0
