#------------------------------------------------------------------------------
#$Date: 2015-07-11 16:53:26 +0300 (Sat, 11 Jul 2015) $
#$Revision: 145064 $
#$URL: svn://www.crystallography.net/cod/cif/1/52/43/1524330.cif $
#------------------------------------------------------------------------------
#
# This file is available in the Crystallography Open Database (COD),
# http://www.crystallography.net/
#
# All data on this site have been placed in the public domain by the
# contributors.
#
data_1524330
loop_
_publ_author_name
'Eremenko, V.N.'
'Buyanov, Yu.I.'
'Prima, S.B.'
_publ_section_title
;
 Phase diagram of the system titanium-copper
;
_journal_name_full               'Poroshkovaya Metallurgiya'
_journal_page_first              77
_journal_page_last               87
_journal_volume                  6
_journal_year                    1966
_chemical_formula_sum            'Cu3 Ti2'
_chemical_name_systematic        'Cu3 Ti2'
_space_group_IT_number           139
_symmetry_space_group_name_Hall  '-I 4 2'
_symmetry_space_group_name_H-M   'I 4/m m m'
_cell_angle_alpha                90
_cell_angle_beta                 90
_cell_angle_gamma                90
_cell_formula_units_Z            2
_cell_length_a                   3.14
_cell_length_b                   3.14
_cell_length_c                   13.962
_cell_volume                     137.660
_citation_journal_id_ASTM        PMANAI
_cod_data_source_file            Eremenko_PMANAI_1966_1636.cif
_cod_data_source_block           Cu3Ti2
_cod_original_cell_volume        137.6597
_cod_database_code               1524330
loop_
_symmetry_equiv_pos_as_xyz
x,y,z
-y,x,z
-x,-y,z
y,-x,z
x,-y,-z
y,x,-z
-x,y,-z
-y,-x,-z
-x,-y,-z
y,-x,-z
x,y,-z
-y,x,-z
-x,y,z
-y,-x,z
x,-y,z
y,x,z
x+1/2,y+1/2,z+1/2
-y+1/2,x+1/2,z+1/2
-x+1/2,-y+1/2,z+1/2
y+1/2,-x+1/2,z+1/2
x+1/2,-y+1/2,-z+1/2
y+1/2,x+1/2,-z+1/2
-x+1/2,y+1/2,-z+1/2
-y+1/2,-x+1/2,-z+1/2
-x+1/2,-y+1/2,-z+1/2
y+1/2,-x+1/2,-z+1/2
x+1/2,y+1/2,-z+1/2
-y+1/2,x+1/2,-z+1/2
-x+1/2,y+1/2,z+1/2
-y+1/2,-x+1/2,z+1/2
x+1/2,-y+1/2,z+1/2
y+1/2,x+1/2,z+1/2
loop_
_atom_site_label
_atom_site_type_symbol
_atom_site_fract_x
_atom_site_fract_y
_atom_site_fract_z
_atom_site_occupancy
_atom_site_U_iso_or_equiv
Cu2 Cu 0 0 0.2 1 0.0
Cu1 Cu 0 0 0 1 0.0
Ti1 Ti 0 0 0.4 1 0.0
