#------------------------------------------------------------------------------
#$Date: 2015-07-11 16:00:31 +0300 (Sat, 11 Jul 2015) $
#$Revision: 144761 $
#$URL: svn://www.crystallography.net/cod/cif/1/52/40/1524097.cif $
#------------------------------------------------------------------------------
#
# This file is available in the Crystallography Open Database (COD),
# http://www.crystallography.net/
#
# All data on this site have been placed in the public domain by the
# contributors.
#
data_1524097
loop_
_publ_author_name
'Bouchet, G.'
'Laforest, J.'
'Schweizer, J.'
'Lemaire, R.'
_publ_section_title
;
 Structures cristalline des composes intermetallique Te2 Co17 dans
 lesquels T est un metal des terres rares ou l'yttrium
;
_journal_name_full
;
Comptes Rendus Hebdomadaires des Seances de l'Academie des Sciences, Serie B
;
_journal_page_first              1227
_journal_page_last               1230
_journal_volume                  262
_journal_year                    1966
_chemical_formula_sum            'Co17 Gd2'
_chemical_name_systematic        'Co17 Gd2'
_space_group_IT_number           166
_symmetry_space_group_name_Hall  '-R 3 2"'
_symmetry_space_group_name_H-M   'R -3 m :H'
_cell_angle_alpha                90
_cell_angle_beta                 90
_cell_angle_gamma                120
_cell_formula_units_Z            3
_cell_length_a                   8.377
_cell_length_b                   8.377
_cell_length_c                   12.198
_cell_volume                     741.304
_citation_journal_id_ASTM        CHDBAN
_cod_data_source_file            Bouchet_CHDBAN_1966_1047.cif
_cod_data_source_block           Co17Gd2
_cod_original_cell_volume        741.3039
_cod_database_code               1524097
loop_
_symmetry_equiv_pos_as_xyz
x,y,z
-y,x-y,z
-x+y,-x,z
y,x,-z
-x,-x+y,-z
x-y,-y,-z
-x,-y,-z
y,-x+y,-z
x-y,x,-z
-y,-x,z
x,x-y,z
-x+y,y,z
x+2/3,y+1/3,z+1/3
-y+2/3,x-y+1/3,z+1/3
-x+y+2/3,-x+1/3,z+1/3
y+2/3,x+1/3,-z+1/3
-x+2/3,-x+y+1/3,-z+1/3
x-y+2/3,-y+1/3,-z+1/3
-x+2/3,-y+1/3,-z+1/3
y+2/3,-x+y+1/3,-z+1/3
x-y+2/3,x+1/3,-z+1/3
-y+2/3,-x+1/3,z+1/3
x+2/3,x-y+1/3,z+1/3
-x+y+2/3,y+1/3,z+1/3
x+1/3,y+2/3,z+2/3
-y+1/3,x-y+2/3,z+2/3
-x+y+1/3,-x+2/3,z+2/3
y+1/3,x+2/3,-z+2/3
-x+1/3,-x+y+2/3,-z+2/3
x-y+1/3,-y+2/3,-z+2/3
-x+1/3,-y+2/3,-z+2/3
y+1/3,-x+y+2/3,-z+2/3
x-y+1/3,x+2/3,-z+2/3
-y+1/3,-x+2/3,z+2/3
x+1/3,x-y+2/3,z+2/3
-x+y+1/3,y+2/3,z+2/3
loop_
_atom_site_label
_atom_site_type_symbol
_atom_site_fract_x
_atom_site_fract_y
_atom_site_fract_z
_atom_site_occupancy
_atom_site_U_iso_or_equiv
Co4 Co 0.5 0.5 0.148 1 0.0
Gd1 Gd 0 0 0.333 1 0.0
Co2 Co 0.5 0 0.5 1 0.0
Co1 Co 0 0 0.094 1 0.0
Co3 Co 0.283 0 0 1 0.0
