#------------------------------------------------------------------------------
#$Date: 2015-07-11 22:03:48 +0300 (Sat, 11 Jul 2015) $
#$Revision: 145687 $
#$URL: svn://www.crystallography.net/cod/cif/1/52/48/1524837.cif $
#------------------------------------------------------------------------------
#
# This file is available in the Crystallography Open Database (COD),
# http://www.crystallography.net/
#
# All data on this site have been placed in the public domain by the
# contributors.
#
data_1524837
loop_
_publ_author_name
'Magneli, A.'
'Westgren, A.'
_publ_section_title
;
 Roentgenuntersuchung von Kobalt-Wolframlegierungen
;
_journal_name_full
'Zeitschrift fuer Anorganische und Allgemeine Chemie'
_journal_page_first              268
_journal_page_last               272
_journal_volume                  238
_journal_year                    1938
_chemical_formula_sum            'Co7 W6'
_chemical_name_systematic        'Co7 W6'
_space_group_IT_number           166
_symmetry_space_group_name_Hall  '-R 3 2"'
_symmetry_space_group_name_H-M   'R -3 m :H'
_cell_angle_alpha                90
_cell_angle_beta                 90
_cell_angle_gamma                120
_cell_formula_units_Z            3
_cell_length_a                   4.723
_cell_length_b                   4.723
_cell_length_c                   25.48
_cell_volume                     492.228
_citation_journal_id_ASTM        ZAACAB
_cod_data_source_file            Magneli_ZAACAB_1938_1266.cif
_cod_data_source_block           Co7W6
_cod_original_cell_volume        492.2276
_cod_database_code               1524837
loop_
_symmetry_equiv_pos_as_xyz
x,y,z
-y,x-y,z
-x+y,-x,z
y,x,-z
-x,-x+y,-z
x-y,-y,-z
-x,-y,-z
y,-x+y,-z
x-y,x,-z
-y,-x,z
x,x-y,z
-x+y,y,z
x+2/3,y+1/3,z+1/3
-y+2/3,x-y+1/3,z+1/3
-x+y+2/3,-x+1/3,z+1/3
y+2/3,x+1/3,-z+1/3
-x+2/3,-x+y+1/3,-z+1/3
x-y+2/3,-y+1/3,-z+1/3
-x+2/3,-y+1/3,-z+1/3
y+2/3,-x+y+1/3,-z+1/3
x-y+2/3,x+1/3,-z+1/3
-y+2/3,-x+1/3,z+1/3
x+2/3,x-y+1/3,z+1/3
-x+y+2/3,y+1/3,z+1/3
x+1/3,y+2/3,z+2/3
-y+1/3,x-y+2/3,z+2/3
-x+y+1/3,-x+2/3,z+2/3
y+1/3,x+2/3,-z+2/3
-x+1/3,-x+y+2/3,-z+2/3
x-y+1/3,-y+2/3,-z+2/3
-x+1/3,-y+2/3,-z+2/3
y+1/3,-x+y+2/3,-z+2/3
x-y+1/3,x+2/3,-z+2/3
-y+1/3,-x+2/3,z+2/3
x+1/3,x-y+2/3,z+2/3
-x+y+1/3,y+2/3,z+2/3
loop_
_atom_site_label
_atom_site_type_symbol
_atom_site_fract_x
_atom_site_fract_y
_atom_site_fract_z
_atom_site_occupancy
_atom_site_U_iso_or_equiv
Co1 Co 0 0 0 1 0.0
W3 W 0 0 0.448 1 0.0
Co2 Co 0.8065 0.613 0.203 1 0.0
W2 W 0 0 0.346 1 0.0
W1 W 0 0 0.167 1 0.0
