#------------------------------------------------------------------------------
#$Date: 2016-02-13 21:28:24 +0200 (Sat, 13 Feb 2016) $
#$Revision: 176429 $
#$URL: svn://www.crystallography.net/cod/cif/1/52/47/1524725.cif $
#------------------------------------------------------------------------------
#
# This file is available in the Crystallography Open Database (COD),
# http://www.crystallography.net/
#
# All data on this site have been placed in the public domain by the
# contributors.
#
data_1524725
loop_
_publ_author_name
'Koester, W.'
'Horn, E.'
_publ_section_title
;
 Zustandsbild und Gitterkonstanten der Legierungen des Kobalts mit
 Rhenium, Ruthenium, Osmium, Rhodium und Iridium
;
_journal_name_full               'Zeitschrift fuer Metallkunde'
_journal_page_first              444
_journal_page_last               449
_journal_volume                  43
_journal_year                    1952
_chemical_formula_sum            'Co Ru'
_chemical_name_systematic        '(Co Ru)'
_space_group_IT_number           194
_symmetry_space_group_name_Hall  '-P 6c 2c'
_symmetry_space_group_name_H-M   'P 63/m m c'
_cell_angle_alpha                90
_cell_angle_beta                 90
_cell_angle_gamma                120
_cell_formula_units_Z            1
_cell_length_a                   2.6
_cell_length_b                   2.6
_cell_length_c                   4.165
_cell_volume                     24.383
_citation_journal_id_ASTM        ZEMTAE
_cod_data_source_file            Koester_ZEMTAE_1952_1205.cif
_cod_data_source_block           Co1Ru1
_cod_original_cell_volume        24.38329
_cod_original_formula_sum        'Co1 Ru1'
_cod_database_code               1524725
loop_
_symmetry_equiv_pos_as_xyz
x,y,z
x-y,x,z+1/2
-y,x-y,z
-x,-y,z+1/2
-x+y,-x,z
y,-x+y,z+1/2
-y,-x,-z+1/2
x-y,-y,-z
x,x-y,-z+1/2
y,x,-z
-x+y,y,-z+1/2
-x,-x+y,-z
-x,-y,-z
-x+y,-x,-z-1/2
y,-x+y,-z
x,y,-z-1/2
x-y,x,-z
-y,x-y,-z-1/2
y,x,z-1/2
-x+y,y,z
-x,-x+y,z-1/2
-y,-x,z
x-y,-y,z-1/2
x,x-y,z
loop_
_atom_site_label
_atom_site_type_symbol
_atom_site_fract_x
_atom_site_fract_y
_atom_site_fract_z
_atom_site_occupancy
_atom_site_U_iso_or_equiv
Co1 Co 0.3333 0.6667 0.25 0.5 0.0
Ru1 Ru 0.3333 0.6667 0.25 0.5 0.0
