#------------------------------------------------------------------------------
#$Date: 2016-02-13 21:28:24 +0200 (Sat, 13 Feb 2016) $
#$Revision: 176429 $
#$URL: svn://www.crystallography.net/cod/cif/1/52/43/1524382.cif $
#------------------------------------------------------------------------------
#
# This file is available in the Crystallography Open Database (COD),
# http://www.crystallography.net/
#
# All data on this site have been placed in the public domain by the
# contributors.
#
data_1524382
loop_
_publ_author_name
'Franceschi, E.A.'
'Costa, G.A.'
_publ_section_title
;
 The phase diagram of the Ce-Sn system up to 50 at.% Sn
;
_journal_name_full               'Journal of Thermal Analysis'
_journal_page_first              451
_journal_page_last               456
_journal_volume                  34
_journal_year                    1988
_chemical_formula_sum            'Ce3 Sn'
_chemical_name_systematic        'Ce3 Sn'
_space_group_IT_number           221
_symmetry_space_group_name_Hall  '-P 4 2 3'
_symmetry_space_group_name_H-M   'P m -3 m'
_cell_angle_alpha                90
_cell_angle_beta                 90
_cell_angle_gamma                90
_cell_formula_units_Z            1
_cell_length_a                   4.927
_cell_length_b                   4.927
_cell_length_c                   4.927
_cell_volume                     119.605
_citation_journal_id_ASTM        JTHEA9
_cod_data_source_file            Franceschi_JTHEA9_1988_885.cif
_cod_data_source_block           Ce3Sn1
_cod_original_cell_volume        119.6045
_cod_original_formula_sum        'Ce3 Sn1'
_cod_database_code               1524382
loop_
_symmetry_equiv_pos_as_xyz
x,y,z
-y,x,z
-x,-y,z
y,-x,z
x,-y,-z
y,x,-z
-x,y,-z
-y,-x,-z
z,x,y
-x,z,y
-z,-x,y
x,-z,y
z,-x,-y
x,z,-y
-z,x,-y
-x,-z,-y
y,z,x
y,-z,-x
z,y,-x
-y,z,-x
-z,-y,-x
-y,-z,x
z,-y,x
-z,y,x
-x,-y,-z
y,-x,-z
x,y,-z
-y,x,-z
-x,y,z
-y,-x,z
x,-y,z
y,x,z
-z,-x,-y
x,-z,-y
z,x,-y
-x,z,-y
-z,x,y
-x,-z,y
z,-x,y
x,z,y
-y,-z,-x
-y,z,x
-z,-y,x
y,-z,x
z,y,x
y,z,-x
-z,y,-x
z,-y,-x
loop_
_atom_site_label
_atom_site_type_symbol
_atom_site_fract_x
_atom_site_fract_y
_atom_site_fract_z
_atom_site_occupancy
_atom_site_U_iso_or_equiv
Ce1 Ce 0 0.5 0.5 1 0.0
Sn1 Sn 0 0 0 1 0.0
