#------------------------------------------------------------------------------
#$Date: 2016-02-13 21:28:24 +0200 (Sat, 13 Feb 2016) $
#$Revision: 176429 $
#$URL: svn://www.crystallography.net/cod/cif/1/52/41/1524183.cif $
#------------------------------------------------------------------------------
#
# This file is available in the Crystallography Open Database (COD),
# http://www.crystallography.net/
#
# All data on this site have been placed in the public domain by the
# contributors.
#
data_1524183
loop_
_publ_author_name
'Carnasciali, M.M.'
'Cirafici, S.'
'Franceschi, E.'
_publ_section_title
;
 On the Gd - Cu system
;
_journal_name_full               'Journal of the Less-Common Metals'
_journal_page_first              143
_journal_page_last               147
_journal_volume                  92
_journal_year                    1983
_chemical_formula_sum            'Cu5 Gd'
_chemical_name_systematic        'Cu5 Gd'
_space_group_IT_number           191
_symmetry_space_group_name_Hall  '-P 6 2'
_symmetry_space_group_name_H-M   'P 6/m m m'
_cell_angle_alpha                90
_cell_angle_beta                 90
_cell_angle_gamma                120
_cell_formula_units_Z            1
_cell_length_a                   5.036
_cell_length_b                   5.036
_cell_length_c                   4.102
_cell_volume                     90.094
_citation_journal_id_ASTM        JCOMAH
_cod_data_source_file            Carnasciali_JCOMAH_1983_1470.cif
_cod_data_source_block           Cu5Gd1
_cod_original_cell_volume        90.09438
_cod_original_formula_sum        'Cu5 Gd1'
_cod_database_code               1524183
loop_
_symmetry_equiv_pos_as_xyz
x,y,z
x-y,x,z
-y,x-y,z
-x,-y,z
-x+y,-x,z
y,-x+y,z
-y,-x,-z
x-y,-y,-z
x,x-y,-z
y,x,-z
-x+y,y,-z
-x,-x+y,-z
-x,-y,-z
-x+y,-x,-z
y,-x+y,-z
x,y,-z
x-y,x,-z
-y,x-y,-z
y,x,z
-x+y,y,z
-x,-x+y,z
-y,-x,z
x-y,-y,z
x,x-y,z
loop_
_atom_site_label
_atom_site_type_symbol
_atom_site_fract_x
_atom_site_fract_y
_atom_site_fract_z
_atom_site_occupancy
_atom_site_U_iso_or_equiv
Cu1 Cu 0.3333 0.6667 0 1 0.0
Cu2 Cu 0.5 0 0.5 1 0.0
Gd1 Gd 0 0 0 1 0.0
