#------------------------------------------------------------------------------
#$Date: 2016-02-13 21:28:24 +0200 (Sat, 13 Feb 2016) $
#$Revision: 176429 $
#$URL: svn://www.crystallography.net/cod/cif/1/52/48/1524859.cif $
#------------------------------------------------------------------------------
#
# This file is available in the Crystallography Open Database (COD),
# http://www.crystallography.net/
#
# All data on this site have been placed in the public domain by the
# contributors.
#
data_1524859
loop_
_publ_author_name
'Markiv, V.Ya.'
'Belyavina, N.N.'
'Zhunkovskaya, T.I.'
_publ_section_title
;
 Crystal structure of the compound Eu Ga2
;
_journal_name_full
;
Dopovidi Akademii Nauk Ukrains'koi RSR, Seriya A: Fiziko-Matematichni Ta 
Tekhnichni Nauki
;
_journal_page_first              84
_journal_page_last               88
_journal_volume                  44
_journal_year                    1982
_chemical_formula_sum            'Eu Ga2'
_chemical_name_systematic        'Eu Ga2'
_space_group_IT_number           74
_symmetry_space_group_name_Hall  '-I 2b 2'
_symmetry_space_group_name_H-M   'I m m a'
_cell_angle_alpha                90
_cell_angle_beta                 90
_cell_angle_gamma                90
_cell_formula_units_Z            4
_cell_length_a                   4.637
_cell_length_b                   7.614
_cell_length_c                   7.62
_cell_volume                     269.033
_citation_journal_id_ASTM        DNUNDU
_cod_data_source_file            Markiv_DNUNDU_1982_1847.cif
_cod_data_source_block           Eu1Ga2
_cod_original_cell_volume        269.0326
_cod_original_formula_sum        'Eu1 Ga2'
_cod_database_code               1524859
loop_
_symmetry_equiv_pos_as_xyz
x,y,z
-x,-y+1/2,z
x,-y,-z
-x,y+1/2,-z
-x,-y,-z
x,y-1/2,-z
-x,y,z
x,-y-1/2,z
x+1/2,y+1/2,z+1/2
-x+1/2,-y+1,z+1/2
x+1/2,-y+1/2,-z+1/2
-x+1/2,y+1,-z+1/2
-x+1/2,-y+1/2,-z+1/2
x+1/2,y,-z+1/2
-x+1/2,y+1/2,z+1/2
x+1/2,-y,z+1/2
loop_
_atom_site_label
_atom_site_type_symbol
_atom_site_fract_x
_atom_site_fract_y
_atom_site_fract_z
_atom_site_occupancy
_atom_site_U_iso_or_equiv
Ga1 Ga 0 0.055 0.157 1 0.0
Eu1 Eu 0 0.25 0.548 1 0.0
