#------------------------------------------------------------------------------
#$Date: 2015-07-11 16:51:43 +0300 (Sat, 11 Jul 2015) $
#$Revision: 145051 $
#$URL: svn://www.crystallography.net/cod/cif/1/52/43/1524320.cif $
#------------------------------------------------------------------------------
#
# This file is available in the Crystallography Open Database (COD),
# http://www.crystallography.net/
#
# All data on this site have been placed in the public domain by the
# contributors.
#
data_1524320
loop_
_publ_author_name
'Ellner, M.'
_publ_section_title
;
 Ueber die kristallchemischen Parameter der Ni-, Co- und Fe- haltigen
 Phasen vom Ni As-Typ
;
_journal_name_full               'Journal of the Less-Common Metals'
_journal_page_first              21
_journal_page_last               52
_journal_volume                  48
_journal_year                    1976
_chemical_formula_sum            'Co3 Sn2'
_chemical_name_systematic        'Co3 Sn2'
_space_group_IT_number           194
_symmetry_space_group_name_Hall  '-P 6c 2c'
_symmetry_space_group_name_H-M   'P 63/m m c'
_cell_angle_alpha                90
_cell_angle_beta                 90
_cell_angle_gamma                120
_cell_formula_units_Z            1
_cell_length_a                   4.113
_cell_length_b                   4.113
_cell_length_c                   5.185
_cell_volume                     75.962
_citation_journal_id_ASTM        JCOMAH
_cod_data_source_file            Ellner_JCOMAH_1976_1226.cif
_cod_data_source_block           Co3Sn2
_cod_original_cell_volume        75.96207
_cod_database_code               1524320
loop_
_symmetry_equiv_pos_as_xyz
x,y,z
x-y,x,z+1/2
-y,x-y,z
-x,-y,z+1/2
-x+y,-x,z
y,-x+y,z+1/2
-y,-x,-z+1/2
x-y,-y,-z
x,x-y,-z+1/2
y,x,-z
-x+y,y,-z+1/2
-x,-x+y,-z
-x,-y,-z
-x+y,-x,-z-1/2
y,-x+y,-z
x,y,-z-1/2
x-y,x,-z
-y,x-y,-z-1/2
y,x,z-1/2
-x+y,y,z
-x,-x+y,z-1/2
-y,-x,z
x-y,-y,z-1/2
x,x-y,z
loop_
_atom_site_label
_atom_site_type_symbol
_atom_site_fract_x
_atom_site_fract_y
_atom_site_fract_z
_atom_site_occupancy
_atom_site_U_iso_or_equiv
Co2 Co 0.3333 0.6667 0.75 0.5 0.0
Co1 Co 0 0 0 1 0.0
Sn1 Sn 0.3333 0.6667 0.25 1 0.0
