#------------------------------------------------------------------------------
#$Date: 2015-07-11 16:29:54 +0300 (Sat, 11 Jul 2015) $
#$Revision: 144926 $
#$URL: svn://www.crystallography.net/cod/cif/1/52/42/1524235.cif $
#------------------------------------------------------------------------------
#
# This file is available in the Crystallography Open Database (COD),
# http://www.crystallography.net/
#
# All data on this site have been placed in the public domain by the
# contributors.
#
data_1524235
loop_
_publ_author_name
'Cordier, G.'
'Czech, E.'
'Woll, P.'
'Schaefer, H.'
_publ_section_title
;
 Structural characterization of new ternary compounds of uranium and
 cerium
;
_journal_name_full               'Journal of the Less-Common Metals'
_journal_page_first              327
_journal_page_last               330
_journal_volume                  110
_journal_year                    1985
_chemical_formula_sum            'Ce0.4 Er0.6'
_chemical_name_systematic        'Ce0.4 Er0.6'
_space_group_IT_number           194
_symmetry_space_group_name_Hall  '-P 6c 2c'
_symmetry_space_group_name_H-M   'P 63/m m c'
_cell_angle_alpha                90
_cell_angle_beta                 90
_cell_angle_gamma                120
_cell_formula_units_Z            2
_cell_length_a                   3.6197
_cell_length_b                   3.6197
_cell_length_c                   4.726
_cell_volume                     53.625
_citation_journal_id_ASTM        JCOMAH
_cod_data_source_file            Cordier_JCOMAH_1985_771.cif
_cod_data_source_block           Ce0.4Er0.6
_cod_original_cell_volume        53.62527
_cod_database_code               1524235
loop_
_symmetry_equiv_pos_as_xyz
x,y,z
x-y,x,z+1/2
-y,x-y,z
-x,-y,z+1/2
-x+y,-x,z
y,-x+y,z+1/2
-y,-x,-z+1/2
x-y,-y,-z
x,x-y,-z+1/2
y,x,-z
-x+y,y,-z+1/2
-x,-x+y,-z
-x,-y,-z
-x+y,-x,-z-1/2
y,-x+y,-z
x,y,-z-1/2
x-y,x,-z
-y,x-y,-z-1/2
y,x,z-1/2
-x+y,y,z
-x,-x+y,z-1/2
-y,-x,z
x-y,-y,z-1/2
x,x-y,z
loop_
_atom_site_label
_atom_site_type_symbol
_atom_site_fract_x
_atom_site_fract_y
_atom_site_fract_z
_atom_site_occupancy
_atom_site_U_iso_or_equiv
Er1 Er 0.3333 0.6667 0.25 0.6 0.0
Ce1 Ce 0.3333 0.6667 0.25 0.4 0.0
