#------------------------------------------------------------------------------
#$Date: 2016-02-13 21:28:24 +0200 (Sat, 13 Feb 2016) $
#$Revision: 176429 $
#$URL: svn://www.crystallography.net/cod/cif/1/52/45/1524504.cif $
#------------------------------------------------------------------------------
#
# This file is available in the Crystallography Open Database (COD),
# http://www.crystallography.net/
#
# All data on this site have been placed in the public domain by the
# contributors.
#
data_1524504
loop_
_publ_author_name
'Haszko, S.E.'
_publ_section_title
;
 Intermediate phases with the Cu5 Ca structure
;
_journal_name_full
'Transactions of the Metallurgical Society of Aime'
_journal_page_first              763
_journal_page_last               763
_journal_volume                  218
_journal_year                    1960
_chemical_formula_sum            'Co5 Tb'
_chemical_name_systematic        'Co5 Tb'
_space_group_IT_number           191
_symmetry_space_group_name_Hall  '-P 6 2'
_symmetry_space_group_name_H-M   'P 6/m m m'
_cell_angle_alpha                90
_cell_angle_beta                 90
_cell_angle_gamma                120
_cell_formula_units_Z            1
_cell_length_a                   4.947
_cell_length_b                   4.947
_cell_length_c                   3.982
_cell_volume                     84.395
_citation_journal_id_ASTM        TMSAAB
_cod_data_source_file            Haszko_TMSAAB_1960_1244.cif
_cod_data_source_block           Co5Tb1
_cod_original_cell_volume        84.39481
_cod_original_formula_sum        'Co5 Tb1'
_cod_database_code               1524504
loop_
_symmetry_equiv_pos_as_xyz
x,y,z
x-y,x,z
-y,x-y,z
-x,-y,z
-x+y,-x,z
y,-x+y,z
-y,-x,-z
x-y,-y,-z
x,x-y,-z
y,x,-z
-x+y,y,-z
-x,-x+y,-z
-x,-y,-z
-x+y,-x,-z
y,-x+y,-z
x,y,-z
x-y,x,-z
-y,x-y,-z
y,x,z
-x+y,y,z
-x,-x+y,z
-y,-x,z
x-y,-y,z
x,x-y,z
loop_
_atom_site_label
_atom_site_type_symbol
_atom_site_fract_x
_atom_site_fract_y
_atom_site_fract_z
_atom_site_occupancy
_atom_site_U_iso_or_equiv
Co1 Co 0.3333 0.6667 0 1 0.0
Co2 Co 0.5 0 0.5 1 0.0
Tb1 Tb 0 0 0 1 0.0
