#------------------------------------------------------------------------------
#$Date: 2015-07-11 16:55:50 +0300 (Sat, 11 Jul 2015) $
#$Revision: 145082 $
#$URL: svn://www.crystallography.net/cod/cif/1/52/43/1524341.cif $
#------------------------------------------------------------------------------
#
# This file is available in the Crystallography Open Database (COD),
# http://www.crystallography.net/
#
# All data on this site have been placed in the public domain by the
# contributors.
#
data_1524341
loop_
_publ_author_name
'Farrar, R.A.'
'King, H.W.'
_publ_section_title
;
 Axial ratios and solubility limits of H.C.P. eta and epsilon phases in th
 systems Cd-Mn and Zn-Mn
;
_journal_name_full               Metallography
_journal_page_first              61
_journal_page_last               70
_journal_volume                  3
_journal_year                    1970
_chemical_formula_sum            'Cd0.995 Mn0.005'
_chemical_name_systematic        '(Cd0.995 Mn0.005)'
_space_group_IT_number           194
_symmetry_space_group_name_Hall  '-P 6c 2c'
_symmetry_space_group_name_H-M   'P 63/m m c'
_cell_angle_alpha                90
_cell_angle_beta                 90
_cell_angle_gamma                120
_cell_formula_units_Z            2
_cell_length_a                   2.9803
_cell_length_b                   2.9803
_cell_length_c                   5.6204
_cell_volume                     43.233
_citation_journal_id_ASTM        MEIJAP
_cod_data_source_file            Farrar_MEIJAP_1970_663.cif
_cod_data_source_block           Cd0.995Mn0.005
_cod_original_cell_volume        43.23324
_cod_database_code               1524341
loop_
_symmetry_equiv_pos_as_xyz
x,y,z
x-y,x,z+1/2
-y,x-y,z
-x,-y,z+1/2
-x+y,-x,z
y,-x+y,z+1/2
-y,-x,-z+1/2
x-y,-y,-z
x,x-y,-z+1/2
y,x,-z
-x+y,y,-z+1/2
-x,-x+y,-z
-x,-y,-z
-x+y,-x,-z-1/2
y,-x+y,-z
x,y,-z-1/2
x-y,x,-z
-y,x-y,-z-1/2
y,x,z-1/2
-x+y,y,z
-x,-x+y,z-1/2
-y,-x,z
x-y,-y,z-1/2
x,x-y,z
loop_
_atom_site_label
_atom_site_type_symbol
_atom_site_fract_x
_atom_site_fract_y
_atom_site_fract_z
_atom_site_occupancy
_atom_site_U_iso_or_equiv
Mn1 Mn 0.3333 0.6667 0.25 0.005 0.0
Cd1 Cd 0.3333 0.6667 0.25 0.995 0.0
