#------------------------------------------------------------------------------
#$Date: 2015-07-11 16:23:35 +0300 (Sat, 11 Jul 2015) $
#$Revision: 144882 $
#$URL: svn://www.crystallography.net/cod/cif/1/52/41/1524196.cif $
#------------------------------------------------------------------------------
#
# This file is available in the Crystallography Open Database (COD),
# http://www.crystallography.net/
#
# All data on this site have been placed in the public domain by the
# contributors.
#
data_1524196
loop_
_publ_author_name
'Chatterjee, D.'
'Taylor, K.N.R.'
_publ_section_title
;
 Magnetic and structural properties of the neodymium- dysprosium alloy
 system
;
_journal_name_full               'Journal of Physics F'
_journal_page_first              151
_journal_page_last               158
_journal_volume                  2
_journal_year                    1972
_chemical_formula_sum            'Dy0.3 Nd0.7'
_chemical_name_systematic        '(Dy0.3 Nd0.7)'
_space_group_IT_number           194
_symmetry_space_group_name_Hall  '-P 6c 2c'
_symmetry_space_group_name_H-M   'P 63/m m c'
_cell_angle_alpha                90
_cell_angle_beta                 90
_cell_angle_gamma                120
_cell_formula_units_Z            4
_cell_length_a                   3.616
_cell_length_b                   3.616
_cell_length_c                   11.652
_cell_volume                     131.943
_citation_journal_id_ASTM        JPFMAT
_cod_data_source_file            Chatterjee_JPFMAT_1972_1799.cif
_cod_data_source_block           Dy0.3Nd0.7
_cod_original_cell_volume        131.9435
_cod_database_code               1524196
loop_
_symmetry_equiv_pos_as_xyz
x,y,z
x-y,x,z+1/2
-y,x-y,z
-x,-y,z+1/2
-x+y,-x,z
y,-x+y,z+1/2
-y,-x,-z+1/2
x-y,-y,-z
x,x-y,-z+1/2
y,x,-z
-x+y,y,-z+1/2
-x,-x+y,-z
-x,-y,-z
-x+y,-x,-z-1/2
y,-x+y,-z
x,y,-z-1/2
x-y,x,-z
-y,x-y,-z-1/2
y,x,z-1/2
-x+y,y,z
-x,-x+y,z-1/2
-y,-x,z
x-y,-y,z-1/2
x,x-y,z
loop_
_atom_site_label
_atom_site_type_symbol
_atom_site_fract_x
_atom_site_fract_y
_atom_site_fract_z
_atom_site_occupancy
_atom_site_U_iso_or_equiv
Dy1 Dy 0 0 0 0.3 0.0
Nd1 Nd 0 0 0 0.7 0.0
Nd2 Nd 0.3333 0.6667 0.25 0.7 0.0
Dy2 Dy 0.3333 0.6667 0.25 0.3 0.0
