#------------------------------------------------------------------------------
#$Date: 2016-02-13 21:28:24 +0200 (Sat, 13 Feb 2016) $
#$Revision: 176429 $
#$URL: svn://www.crystallography.net/cod/cif/1/52/43/1524398.cif $
#------------------------------------------------------------------------------
#
# This file is available in the Crystallography Open Database (COD),
# http://www.crystallography.net/
#
# All data on this site have been placed in the public domain by the
# contributors.
#
data_1524398
loop_
_publ_author_name
'Geisler, A.H.'
'Martin, D.L.'
_publ_section_title
;
 A new superlattice in Co-Pt alloys
;
_journal_name_full               'Journal of Applied Physics'
_journal_page_first              375
_journal_page_last               375
_journal_volume                  23
_journal_year                    1952
_chemical_formula_sum            'Co Pt3'
_chemical_name_systematic        'Co Pt3'
_space_group_IT_number           221
_symmetry_space_group_name_Hall  '-P 4 2 3'
_symmetry_space_group_name_H-M   'P m -3 m'
_cell_angle_alpha                90
_cell_angle_beta                 90
_cell_angle_gamma                90
_cell_formula_units_Z            1
_cell_length_a                   3.831
_cell_length_b                   3.831
_cell_length_c                   3.831
_cell_volume                     56.226
_citation_journal_id_ASTM        JAPIAU
_cod_data_source_file            Geisler_JAPIAU_1952_1190.cif
_cod_data_source_block           Co1Pt3
_cod_original_cell_volume        56.22591
_cod_original_formula_sum        'Co1 Pt3'
_cod_database_code               1524398
loop_
_symmetry_equiv_pos_as_xyz
x,y,z
-y,x,z
-x,-y,z
y,-x,z
x,-y,-z
y,x,-z
-x,y,-z
-y,-x,-z
z,x,y
-x,z,y
-z,-x,y
x,-z,y
z,-x,-y
x,z,-y
-z,x,-y
-x,-z,-y
y,z,x
y,-z,-x
z,y,-x
-y,z,-x
-z,-y,-x
-y,-z,x
z,-y,x
-z,y,x
-x,-y,-z
y,-x,-z
x,y,-z
-y,x,-z
-x,y,z
-y,-x,z
x,-y,z
y,x,z
-z,-x,-y
x,-z,-y
z,x,-y
-x,z,-y
-z,x,y
-x,-z,y
z,-x,y
x,z,y
-y,-z,-x
-y,z,x
-z,-y,x
y,-z,x
z,y,x
y,z,-x
-z,y,-x
z,-y,-x
loop_
_atom_site_label
_atom_site_type_symbol
_atom_site_fract_x
_atom_site_fract_y
_atom_site_fract_z
_atom_site_occupancy
_atom_site_U_iso_or_equiv
Co1 Co 0 0 0 1 0.0
Pt1 Pt 0 0.5 0.5 1 0.0
