#------------------------------------------------------------------------------
#$Date: 2015-07-11 17:13:39 +0300 (Sat, 11 Jul 2015) $
#$Revision: 145185 $
#$URL: svn://www.crystallography.net/cod/cif/1/52/44/1524421.cif $
#------------------------------------------------------------------------------
#
# This file is available in the Crystallography Open Database (COD),
# http://www.crystallography.net/
#
# All data on this site have been placed in the public domain by the
# contributors.
#
data_1524421
loop_
_publ_author_name
'Givord, F.'
'Lemaire, R.'
_publ_section_title
;
 Structure cristalline du compose intermetallique (Gd2/3 2Fe1/3) Fe5
;
_journal_name_full               'Journal of the Less-Common Metals'
_journal_page_first              463
_journal_page_last               568
_journal_volume                  21
_journal_year                    1970
_chemical_formula_sum            'Fe5.661 Gd0.666'
_chemical_name_systematic        '(Fe17 Gd2)0.333'
_space_group_IT_number           191
_symmetry_space_group_name_Hall  '-P 6 2'
_symmetry_space_group_name_H-M   'P 6/m m m'
_cell_angle_alpha                90
_cell_angle_beta                 90
_cell_angle_gamma                120
_cell_formula_units_Z            1
_cell_length_a                   4.907
_cell_length_b                   4.907
_cell_length_c                   4.168
_cell_volume                     86.914
_citation_journal_id_ASTM        JCOMAH
_cod_data_source_file            Givord_JCOMAH_1970_1932.cif
_cod_data_source_block           Fe5.661Gd0.666
_cod_original_cell_volume        86.91415
_cod_database_code               1524421
loop_
_symmetry_equiv_pos_as_xyz
x,y,z
x-y,x,z
-y,x-y,z
-x,-y,z
-x+y,-x,z
y,-x+y,z
-y,-x,-z
x-y,-y,-z
x,x-y,-z
y,x,-z
-x+y,y,-z
-x,-x+y,-z
-x,-y,-z
-x+y,-x,-z
y,-x+y,-z
x,y,-z
x-y,x,-z
-y,x-y,-z
y,x,z
-x+y,y,z
-x,-x+y,z
-y,-x,z
x-y,-y,z
x,x-y,z
loop_
_atom_site_label
_atom_site_type_symbol
_atom_site_fract_x
_atom_site_fract_y
_atom_site_fract_z
_atom_site_occupancy
_atom_site_U_iso_or_equiv
Fe2 Fe 0 0 0.29 0.33 0.0
Gd1 Gd 0 0 0 0.67 0.0
Fe3 Fe 0.5 0 0.5 1 0.0
Fe1 Fe 0.3333 0.6667 0 1 0.0
