#------------------------------------------------------------------------------
#$Date: 2016-02-13 21:28:24 +0200 (Sat, 13 Feb 2016) $
#$Revision: 176429 $
#$URL: svn://www.crystallography.net/cod/cif/1/52/42/1524246.cif $
#------------------------------------------------------------------------------
#
# This file is available in the Crystallography Open Database (COD),
# http://www.crystallography.net/
#
# All data on this site have been placed in the public domain by the
# contributors.
#
data_1524246
loop_
_publ_author_name
'Dasarathy, C.'
'Hume-Rothery, W.'
_publ_section_title
;
 The system iron-gallium
;
_journal_name_full
;
Proceedings of the Royal Society of London, Series A: Mathematical and 
Physical Sciences (76,1906-)
;
_journal_page_first              141
_journal_page_last               157
_journal_volume                  286
_journal_year                    1965
_chemical_formula_sum            'Fe Ga3'
_chemical_name_systematic        'Fe Ga3'
_space_group_IT_number           136
_symmetry_space_group_name_Hall  '-P 4n 2n'
_symmetry_space_group_name_H-M   'P 42/m n m'
_cell_angle_alpha                90
_cell_angle_beta                 90
_cell_angle_gamma                90
_cell_formula_units_Z            4
_cell_length_a                   6.26
_cell_length_b                   6.26
_cell_length_c                   6.58
_cell_volume                     257.854
_citation_journal_id_ASTM        PRLAAZ
_cod_data_source_file            Dasarathy_PRLAAZ_1965_1902.cif
_cod_data_source_block           Fe1Ga3
_cod_original_cell_volume        257.8544
_cod_original_formula_sum        'Fe1 Ga3'
_cod_database_code               1524246
loop_
_symmetry_equiv_pos_as_xyz
x,y,z
-y+1/2,x+1/2,z+1/2
-x,-y,z
y+1/2,-x+1/2,z+1/2
x+1/2,-y+1/2,-z+1/2
y,x,-z
-x+1/2,y+1/2,-z+1/2
-y,-x,-z
-x,-y,-z
y-1/2,-x-1/2,-z-1/2
x,y,-z
-y-1/2,x-1/2,-z-1/2
-x-1/2,y-1/2,z-1/2
-y,-x,z
x-1/2,-y-1/2,z-1/2
y,x,z
loop_
_atom_site_label
_atom_site_type_symbol
_atom_site_fract_x
_atom_site_fract_y
_atom_site_fract_z
_atom_site_occupancy
_atom_site_U_iso_or_equiv
Ga1 Ga 0 0.5 0 1 0.0
Fe1 Fe 0.35 0.35 0 1 0.0
Ga2 Ga 0.155 0.155 0.25 1 0.0
