#------------------------------------------------------------------------------
#$Date: 2015-07-11 22:18:31 +0300 (Sat, 11 Jul 2015) $
#$Revision: 145781 $
#$URL: svn://www.crystallography.net/cod/cif/1/52/49/1524916.cif $
#------------------------------------------------------------------------------
#
# This file is available in the Crystallography Open Database (COD),
# http://www.crystallography.net/
#
# All data on this site have been placed in the public domain by the
# contributors.
#
data_1524916
loop_
_publ_author_name
'Meissner, H.G.'
'Schubert, K.'
_publ_section_title
;
 Zum Aufbau einiger zu T(5)-Ga homologer und quasihomologer Systeme. II.
 Die Systeme Cr-Ga, Mn-Ga und Fe-Ga sowie einige Bemerkungen zm Aufbau der
 Systeme V-Sb und V-As
;
_journal_name_full               'Zeitschrift fuer Metallkunde'
_journal_page_first              523
_journal_page_last               530
_journal_volume                  56
_journal_year                    1965
_chemical_formula_sum            'Fe0.67 Ga0.33'
_chemical_name_systematic        '(Fe0.67 Ga0.33)'
_space_group_IT_number           194
_symmetry_space_group_name_Hall  '-P 6c 2c'
_symmetry_space_group_name_H-M   'P 63/m m c'
_cell_angle_alpha                90
_cell_angle_beta                 90
_cell_angle_gamma                120
_cell_formula_units_Z            2
_cell_length_a                   2.62
_cell_length_b                   2.62
_cell_length_c                   4.21
_cell_volume                     25.027
_citation_journal_id_ASTM        ZEMTAE
_cod_data_source_file            Meissner_ZEMTAE_1965_1903.cif
_cod_data_source_block           Fe0.67Ga0.33
_cod_original_cell_volume        25.02737
_cod_database_code               1524916
loop_
_symmetry_equiv_pos_as_xyz
x,y,z
x-y,x,z+1/2
-y,x-y,z
-x,-y,z+1/2
-x+y,-x,z
y,-x+y,z+1/2
-y,-x,-z+1/2
x-y,-y,-z
x,x-y,-z+1/2
y,x,-z
-x+y,y,-z+1/2
-x,-x+y,-z
-x,-y,-z
-x+y,-x,-z-1/2
y,-x+y,-z
x,y,-z-1/2
x-y,x,-z
-y,x-y,-z-1/2
y,x,z-1/2
-x+y,y,z
-x,-x+y,z-1/2
-y,-x,z
x-y,-y,z-1/2
x,x-y,z
loop_
_atom_site_label
_atom_site_type_symbol
_atom_site_fract_x
_atom_site_fract_y
_atom_site_fract_z
_atom_site_occupancy
_atom_site_U_iso_or_equiv
Ga1 Ga 0.3333 0.6667 0.25 0.33 0.0
Fe1 Fe 0.3333 0.6667 0.25 0.67 0.0
