#------------------------------------------------------------------------------
#$Date: 2016-02-13 21:28:24 +0200 (Sat, 13 Feb 2016) $
#$Revision: 176429 $
#$URL: svn://www.crystallography.net/cod/cif/1/52/42/1524202.cif $
#------------------------------------------------------------------------------
#
# This file is available in the Crystallography Open Database (COD),
# http://www.crystallography.net/
#
# All data on this site have been placed in the public domain by the
# contributors.
#
data_1524202
loop_
_publ_author_name
'Che Guangcan'
'Yu Yu-De'
'Liang Jingkui'
_publ_section_title
;
 A study on the phase diagram of pseudo-binary systems La Ni5 - Nd Ni5 (Ce
 Ni5) and their hydrogen absorption characteristics
;
_journal_name_full               'Wu Li Hsueh Pao (= Acta Physica Sinica)'
_journal_page_first              770
_journal_page_last               778
_journal_volume                  33
_journal_year                    1984
_chemical_formula_sum            'Ce Ni5'
_chemical_name_systematic        'Ce Ni5'
_space_group_IT_number           191
_symmetry_space_group_name_Hall  '-P 6 2'
_symmetry_space_group_name_H-M   'P 6/m m m'
_cell_angle_alpha                90
_cell_angle_beta                 90
_cell_angle_gamma                120
_cell_formula_units_Z            1
_cell_length_a                   4.879
_cell_length_b                   4.879
_cell_length_c                   3.994
_cell_volume                     82.338
_citation_journal_id_ASTM        WLHPAR
_cod_data_source_file            CheGuangcan_WLHPAR_1984_844.cif
_cod_data_source_block           Ce1Ni5
_cod_original_cell_volume        82.33801
_cod_original_formula_sum        'Ce1 Ni5'
_cod_database_code               1524202
loop_
_symmetry_equiv_pos_as_xyz
x,y,z
x-y,x,z
-y,x-y,z
-x,-y,z
-x+y,-x,z
y,-x+y,z
-y,-x,-z
x-y,-y,-z
x,x-y,-z
y,x,-z
-x+y,y,-z
-x,-x+y,-z
-x,-y,-z
-x+y,-x,-z
y,-x+y,-z
x,y,-z
x-y,x,-z
-y,x-y,-z
y,x,z
-x+y,y,z
-x,-x+y,z
-y,-x,z
x-y,-y,z
x,x-y,z
loop_
_atom_site_label
_atom_site_type_symbol
_atom_site_fract_x
_atom_site_fract_y
_atom_site_fract_z
_atom_site_occupancy
_atom_site_U_iso_or_equiv
Ce1 Ce 0 0 0 1 0.0
Ni1 Ni 0.3333 0.6667 0 1 0.0
Ni2 Ni 0.5 0 0.5 1 0.0
