#------------------------------------------------------------------------------
#$Date: 2015-07-11 16:41:38 +0300 (Sat, 11 Jul 2015) $
#$Revision: 144999 $
#$URL: svn://www.crystallography.net/cod/cif/1/52/42/1524277.cif $
#------------------------------------------------------------------------------
#
# This file is available in the Crystallography Open Database (COD),
# http://www.crystallography.net/
#
# All data on this site have been placed in the public domain by the
# contributors.
#
data_1524277
loop_
_publ_author_name
'Duwez, P.'
'Taylor, J.L.'
_publ_section_title
;
 A partial titanium-chromium phase diagram and the crystal structure of
 Ti2 Cr
;
_journal_name_full
'Transactions of the American Society for Metals'
_journal_page_first              495
_journal_page_last               513
_journal_volume                  44
_journal_year                    1952
_chemical_formula_sum            'Cr0.2 Ti0.8'
_chemical_name_systematic        '(Cr0.2 Ti0.8)'
_space_group_IT_number           229
_symmetry_space_group_name_Hall  '-I 4 2 3'
_symmetry_space_group_name_H-M   'I m -3 m'
_cell_angle_alpha                90
_cell_angle_beta                 90
_cell_angle_gamma                90
_cell_formula_units_Z            2
_cell_length_a                   3.21
_cell_length_b                   3.21
_cell_length_c                   3.21
_cell_volume                     33.076
_citation_journal_id_ASTM        TASEA7
_cod_data_source_file            Duwez_TASEA7_1952_1374.cif
_cod_data_source_block           Cr0.2Ti0.8
_cod_original_cell_volume        33.07616
_cod_database_code               1524277
loop_
_symmetry_equiv_pos_as_xyz
x,y,z
-y,x,z
-x,-y,z
y,-x,z
x,-y,-z
y,x,-z
-x,y,-z
-y,-x,-z
z,x,y
-x,z,y
-z,-x,y
x,-z,y
z,-x,-y
x,z,-y
-z,x,-y
-x,-z,-y
y,z,x
y,-z,-x
z,y,-x
-y,z,-x
-z,-y,-x
-y,-z,x
z,-y,x
-z,y,x
-x,-y,-z
y,-x,-z
x,y,-z
-y,x,-z
-x,y,z
-y,-x,z
x,-y,z
y,x,z
-z,-x,-y
x,-z,-y
z,x,-y
-x,z,-y
-z,x,y
-x,-z,y
z,-x,y
x,z,y
-y,-z,-x
-y,z,x
-z,-y,x
y,-z,x
z,y,x
y,z,-x
-z,y,-x
z,-y,-x
x+1/2,y+1/2,z+1/2
-y+1/2,x+1/2,z+1/2
-x+1/2,-y+1/2,z+1/2
y+1/2,-x+1/2,z+1/2
x+1/2,-y+1/2,-z+1/2
y+1/2,x+1/2,-z+1/2
-x+1/2,y+1/2,-z+1/2
-y+1/2,-x+1/2,-z+1/2
z+1/2,x+1/2,y+1/2
-x+1/2,z+1/2,y+1/2
-z+1/2,-x+1/2,y+1/2
x+1/2,-z+1/2,y+1/2
z+1/2,-x+1/2,-y+1/2
x+1/2,z+1/2,-y+1/2
-z+1/2,x+1/2,-y+1/2
-x+1/2,-z+1/2,-y+1/2
y+1/2,z+1/2,x+1/2
y+1/2,-z+1/2,-x+1/2
z+1/2,y+1/2,-x+1/2
-y+1/2,z+1/2,-x+1/2
-z+1/2,-y+1/2,-x+1/2
-y+1/2,-z+1/2,x+1/2
z+1/2,-y+1/2,x+1/2
-z+1/2,y+1/2,x+1/2
-x+1/2,-y+1/2,-z+1/2
y+1/2,-x+1/2,-z+1/2
x+1/2,y+1/2,-z+1/2
-y+1/2,x+1/2,-z+1/2
-x+1/2,y+1/2,z+1/2
-y+1/2,-x+1/2,z+1/2
x+1/2,-y+1/2,z+1/2
y+1/2,x+1/2,z+1/2
-z+1/2,-x+1/2,-y+1/2
x+1/2,-z+1/2,-y+1/2
z+1/2,x+1/2,-y+1/2
-x+1/2,z+1/2,-y+1/2
-z+1/2,x+1/2,y+1/2
-x+1/2,-z+1/2,y+1/2
z+1/2,-x+1/2,y+1/2
x+1/2,z+1/2,y+1/2
-y+1/2,-z+1/2,-x+1/2
-y+1/2,z+1/2,x+1/2
-z+1/2,-y+1/2,x+1/2
y+1/2,-z+1/2,x+1/2
z+1/2,y+1/2,x+1/2
y+1/2,z+1/2,-x+1/2
-z+1/2,y+1/2,-x+1/2
z+1/2,-y+1/2,-x+1/2
loop_
_atom_site_label
_atom_site_type_symbol
_atom_site_fract_x
_atom_site_fract_y
_atom_site_fract_z
_atom_site_occupancy
_atom_site_U_iso_or_equiv
Cr1 Cr 0 0 0 0.2 0.0
Ti1 Ti 0 0 0 0.8 0.0
