#------------------------------------------------------------------------------
#$Date: 2016-02-13 21:28:24 +0200 (Sat, 13 Feb 2016) $
#$Revision: 176429 $
#$URL: svn://www.crystallography.net/cod/cif/1/52/41/1524191.cif $
#------------------------------------------------------------------------------
#
# This file is available in the Crystallography Open Database (COD),
# http://www.crystallography.net/
#
# All data on this site have been placed in the public domain by the
# contributors.
#
data_1524191
loop_
_publ_author_name
'Chamard-Bois, R.'
'Nguyen van Nhung'
'Wintenberger, M.'
'Yakinthos, Y.'
_publ_section_title
;
 +1 terres rares-rhodium, T Rh (T= Dy, Ho, Er)
;
_journal_name_full               'Solid State Communications'
_journal_page_first              685
_journal_page_last               689
_journal_volume                  10
_journal_year                    1972
_chemical_formula_sum            'Dy Rh'
_chemical_name_systematic        'Dy Rh'
_space_group_IT_number           221
_symmetry_space_group_name_Hall  '-P 4 2 3'
_symmetry_space_group_name_H-M   'P m -3 m'
_cell_angle_alpha                90
_cell_angle_beta                 90
_cell_angle_gamma                90
_cell_formula_units_Z            1
_cell_length_a                   3.394
_cell_length_b                   3.394
_cell_length_c                   3.394
_cell_volume                     39.096
_citation_journal_id_ASTM        SSCOA4
_cod_data_source_file            Chamard-Bois_SSCOA4_1972_1822.cif
_cod_data_source_block           Dy1Rh1
_cod_original_cell_volume        39.09629
_cod_original_formula_sum        'Dy1 Rh1'
_cod_database_code               1524191
loop_
_symmetry_equiv_pos_as_xyz
x,y,z
-y,x,z
-x,-y,z
y,-x,z
x,-y,-z
y,x,-z
-x,y,-z
-y,-x,-z
z,x,y
-x,z,y
-z,-x,y
x,-z,y
z,-x,-y
x,z,-y
-z,x,-y
-x,-z,-y
y,z,x
y,-z,-x
z,y,-x
-y,z,-x
-z,-y,-x
-y,-z,x
z,-y,x
-z,y,x
-x,-y,-z
y,-x,-z
x,y,-z
-y,x,-z
-x,y,z
-y,-x,z
x,-y,z
y,x,z
-z,-x,-y
x,-z,-y
z,x,-y
-x,z,-y
-z,x,y
-x,-z,y
z,-x,y
x,z,y
-y,-z,-x
-y,z,x
-z,-y,x
y,-z,x
z,y,x
y,z,-x
-z,y,-x
z,-y,-x
loop_
_atom_site_label
_atom_site_type_symbol
_atom_site_fract_x
_atom_site_fract_y
_atom_site_fract_z
_atom_site_occupancy
_atom_site_U_iso_or_equiv
Dy1 Dy 0 0 0 1 0.0
Rh1 Rh 0.5 0.5 0.5 1 0.0
