#------------------------------------------------------------------------------
#$Date: 2015-07-11 15:53:21 +0300 (Sat, 11 Jul 2015) $
#$Revision: 144727 $
#$URL: svn://www.crystallography.net/cod/cif/1/52/40/1524066.cif $
#------------------------------------------------------------------------------
#
# This file is available in the Crystallography Open Database (COD),
# http://www.crystallography.net/
#
# All data on this site have been placed in the public domain by the
# contributors.
#
data_1524066
loop_
_publ_author_name
'Bertaut, E.F.'
'Lemaire, R.'
'Schweizer, J.'
_publ_section_title
;
 Structures cristalline des composes intermetallique Te Co7 et T Co3 (T=
 terre rare ou yttrium)
;
_journal_name_full
;
Bulletin de la Societe Francaise de Mineralogie et de Cristallographie 
(72,1949-100,1977)
;
_journal_page_first              580
_journal_page_last               585
_journal_volume                  88
_journal_year                    1965
_chemical_formula_sum            'Co7 Gd2'
_chemical_name_systematic        'Co7 Gd2'
_space_group_IT_number           166
_symmetry_space_group_name_Hall  '-R 3 2"'
_symmetry_space_group_name_H-M   'R -3 m :H'
_cell_angle_alpha                90
_cell_angle_beta                 90
_cell_angle_gamma                120
_cell_formula_units_Z            6
_cell_length_a                   5.024
_cell_length_b                   5.024
_cell_length_c                   36.32
_cell_volume                     793.918
_citation_journal_id_ASTM        BUFCAE
_cod_data_source_file            Bertaut_BUFCAE_1965_1045.cif
_cod_data_source_block           Co7Gd2
_cod_original_cell_volume        793.9182
_cod_database_code               1524066
loop_
_symmetry_equiv_pos_as_xyz
x,y,z
-y,x-y,z
-x+y,-x,z
y,x,-z
-x,-x+y,-z
x-y,-y,-z
-x,-y,-z
y,-x+y,-z
x-y,x,-z
-y,-x,z
x,x-y,z
-x+y,y,z
x+2/3,y+1/3,z+1/3
-y+2/3,x-y+1/3,z+1/3
-x+y+2/3,-x+1/3,z+1/3
y+2/3,x+1/3,-z+1/3
-x+2/3,-x+y+1/3,-z+1/3
x-y+2/3,-y+1/3,-z+1/3
-x+2/3,-y+1/3,-z+1/3
y+2/3,-x+y+1/3,-z+1/3
x-y+2/3,x+1/3,-z+1/3
-y+2/3,-x+1/3,z+1/3
x+2/3,x-y+1/3,z+1/3
-x+y+2/3,y+1/3,z+1/3
x+1/3,y+2/3,z+2/3
-y+1/3,x-y+2/3,z+2/3
-x+y+1/3,-x+2/3,z+2/3
y+1/3,x+2/3,-z+2/3
-x+1/3,-x+y+2/3,-z+2/3
x-y+1/3,-y+2/3,-z+2/3
-x+1/3,-y+2/3,-z+2/3
y+1/3,-x+y+2/3,-z+2/3
x-y+1/3,x+2/3,-z+2/3
-y+1/3,-x+2/3,z+2/3
x+1/3,x-y+2/3,z+2/3
-x+y+1/3,y+2/3,z+2/3
loop_
_atom_site_label
_atom_site_type_symbol
_atom_site_fract_x
_atom_site_fract_y
_atom_site_fract_z
_atom_site_occupancy
_atom_site_U_iso_or_equiv
Co1 Co 0 0 0.5 1 0.0
Co2 Co 0 0 0.278 1 0.0
Gd1 Gd 0 0 0.055 1 0.0
Co5 Co 0.5 0.5 0.111 1 0.0
Co4 Co 0.5 0 0 1 0.0
Gd2 Gd 0 0 0.149 1 0.0
Co3 Co 0 0 0.388 1 0.0
