#------------------------------------------------------------------------------
#$Date: 2015-07-11 16:03:57 +0300 (Sat, 11 Jul 2015) $
#$Revision: 144782 $
#$URL: svn://www.crystallography.net/cod/cif/1/52/41/1524109.cif $
#------------------------------------------------------------------------------
#
# This file is available in the Crystallography Open Database (COD),
# http://www.crystallography.net/
#
# All data on this site have been placed in the public domain by the
# contributors.
#
data_1524109
loop_
_publ_author_name
'Bruzzone, G.'
'Merlo, F.'
'Fornasini, M.L.'
_publ_section_title
;
 Rare-earth intermediate phases with cadmium
;
_journal_name_full               'Journal of the Less-Common Metals'
_journal_page_first              361
_journal_page_last               375
_journal_volume                  30
_journal_year                    1973
_chemical_formula_sum            'Cd17 La2'
_chemical_name_systematic        'Cd17 La2'
_space_group_IT_number           194
_symmetry_space_group_name_Hall  '-P 6c 2c'
_symmetry_space_group_name_H-M   'P 63/m m c'
_cell_angle_alpha                90
_cell_angle_beta                 90
_cell_angle_gamma                120
_cell_formula_units_Z            2
_cell_length_a                   10.042
_cell_length_b                   10.042
_cell_length_c                   9.925
_cell_volume                     866.765
_citation_journal_id_ASTM        JCOMAH
_cod_data_source_file            Bruzzone_JCOMAH_1973_641.cif
_cod_data_source_block           Cd17La2
_cod_original_cell_volume        866.7654
_cod_database_code               1524109
loop_
_symmetry_equiv_pos_as_xyz
x,y,z
x-y,x,z+1/2
-y,x-y,z
-x,-y,z+1/2
-x+y,-x,z
y,-x+y,z+1/2
-y,-x,-z+1/2
x-y,-y,-z
x,x-y,-z+1/2
y,x,-z
-x+y,y,-z+1/2
-x,-x+y,-z
-x,-y,-z
-x+y,-x,-z-1/2
y,-x+y,-z
x,y,-z-1/2
x-y,x,-z
-y,x-y,-z-1/2
y,x,z-1/2
-x+y,y,z
-x,-x+y,z-1/2
-y,-x,z
x-y,-y,z-1/2
x,x-y,z
loop_
_atom_site_label
_atom_site_type_symbol
_atom_site_fract_x
_atom_site_fract_y
_atom_site_fract_z
_atom_site_occupancy
_atom_site_U_iso_or_equiv
Cd4 Cd 0.167 0.334 0 1 0.0
Cd1 Cd 0.3333 0.6667 0.11 1 0.0
Cd3 Cd 0.033 0.667 0.25 1 0.0
La1 La 0 0 0.25 1 0.0
La2 La 0.3333 0.6667 0.75 1 0.0
Cd2 Cd 0.5 0 0 1 0.0
