#------------------------------------------------------------------------------
#$Date: 2015-07-11 18:15:52 +0300 (Sat, 11 Jul 2015) $
#$Revision: 145594 $
#$URL: svn://www.crystallography.net/cod/cif/1/52/47/1524763.cif $
#------------------------------------------------------------------------------
#
# This file is available in the Crystallography Open Database (COD),
# http://www.crystallography.net/
#
# All data on this site have been placed in the public domain by the
# contributors.
#
data_1524763
loop_
_publ_author_name
'Krizek, H.'
'Taylor, K.N.R.'
_publ_section_title
;
 Crystal structure of lanthanum-dysprosium alloys
;
_journal_name_full               'Journal of the Less-Common Metals'
_journal_page_first              263
_journal_page_last               265
_journal_volume                  38
_journal_year                    1974
_chemical_formula_sum            'Dy0.11 La0.89'
_chemical_name_systematic        '(Dy0.11 La0.89)'
_space_group_IT_number           194
_symmetry_space_group_name_Hall  '-P 6c 2c'
_symmetry_space_group_name_H-M   'P 63/m m c'
_cell_angle_alpha                90
_cell_angle_beta                 90
_cell_angle_gamma                120
_cell_formula_units_Z            4
_cell_length_a                   3.8199
_cell_length_b                   3.8199
_cell_length_c                   12.521
_cell_volume                     158.224
_citation_journal_id_ASTM        JCOMAH
_cod_data_source_file            Krizek_JCOMAH_1974_1629.cif
_cod_data_source_block           Dy0.11La0.89
_cod_original_cell_volume        158.2245
_cod_database_code               1524763
loop_
_symmetry_equiv_pos_as_xyz
x,y,z
x-y,x,z+1/2
-y,x-y,z
-x,-y,z+1/2
-x+y,-x,z
y,-x+y,z+1/2
-y,-x,-z+1/2
x-y,-y,-z
x,x-y,-z+1/2
y,x,-z
-x+y,y,-z+1/2
-x,-x+y,-z
-x,-y,-z
-x+y,-x,-z-1/2
y,-x+y,-z
x,y,-z-1/2
x-y,x,-z
-y,x-y,-z-1/2
y,x,z-1/2
-x+y,y,z
-x,-x+y,z-1/2
-y,-x,z
x-y,-y,z-1/2
x,x-y,z
loop_
_atom_site_label
_atom_site_type_symbol
_atom_site_fract_x
_atom_site_fract_y
_atom_site_fract_z
_atom_site_occupancy
_atom_site_U_iso_or_equiv
La1 La 0 0 0 0.89 0.0
Dy1 Dy 0 0 0 0.11 0.0
La2 La 0.3333 0.6667 0.25 0.89 0.0
Dy2 Dy 0.3333 0.6667 0.25 0.11 0.0
