#------------------------------------------------------------------------------
#$Date: 2016-02-08 21:35:50 +0200 (Mon, 08 Feb 2016) $
#$Revision: 176270 $
#$URL: svn://www.crystallography.net/cod/cif/1/52/48/1524896.cif $
#------------------------------------------------------------------------------
#
# This file is available in the Crystallography Open Database (COD),
# http://www.crystallography.net/
#
# All data on this site have been placed in the public domain by the
# contributors.
#
data_1524896
loop_
_publ_author_name
'Masumoto, Hakaru'
'Watanabe, Kiyoshi'
'Inagawa, K\=onosuke'
_publ_section_title
;
 Magnetic properties of hexagonal close-packed structure type Co-Ir
 binary alloys
;
_journal_coden_ASTM              TJIMAA
_journal_issue                   9
_journal_name_full
;
 Transactions of the Japan Institute of Metals
;
_journal_page_first              592
_journal_page_last               595
_journal_paper_doi               10.2320/matertrans1960.17.592
_journal_volume                  17
_journal_year                    1976
_chemical_formula_sum            'Co1.4 Ir0.6'
_chemical_name_systematic        '(Co3 Ir7)0.2'
_space_group_IT_number           194
_symmetry_space_group_name_Hall  '-P 6c 2c'
_symmetry_space_group_name_H-M   'P 63/m m c'
_cell_angle_alpha                90
_cell_angle_beta                 90
_cell_angle_gamma                120
_cell_formula_units_Z            1
_cell_length_a                   2.588
_cell_length_b                   2.588
_cell_length_c                   4.169
_cell_volume                     24.182
_citation_journal_id_ASTM        TJIMAA
_cod_data_source_file            Masumoto_TJIMAA_1976_40.cif
_cod_data_source_block           Co1.4Ir0.6
_cod_original_cell_volume        24.18194
_cod_database_code               1524896
loop_
_symmetry_equiv_pos_as_xyz
x,y,z
x-y,x,z+1/2
-y,x-y,z
-x,-y,z+1/2
-x+y,-x,z
y,-x+y,z+1/2
-y,-x,-z+1/2
x-y,-y,-z
x,x-y,-z+1/2
y,x,-z
-x+y,y,-z+1/2
-x,-x+y,-z
-x,-y,-z
-x+y,-x,-z-1/2
y,-x+y,-z
x,y,-z-1/2
x-y,x,-z
-y,x-y,-z-1/2
y,x,z-1/2
-x+y,y,z
-x,-x+y,z-1/2
-y,-x,z
x-y,-y,z-1/2
x,x-y,z
loop_
_atom_site_label
_atom_site_type_symbol
_atom_site_fract_x
_atom_site_fract_y
_atom_site_fract_z
_atom_site_occupancy
_atom_site_U_iso_or_equiv
Ir1 Ir 0.3333 0.6667 0.25 0.3 0.0
Co1 Co 0.3333 0.6667 0.25 0.7 0.0
