#------------------------------------------------------------------------------
#$Date: 2016-02-13 21:28:24 +0200 (Sat, 13 Feb 2016) $
#$Revision: 176429 $
#$URL: svn://www.crystallography.net/cod/cif/1/52/45/1524556.cif $
#------------------------------------------------------------------------------
#
# This file is available in the Crystallography Open Database (COD),
# http://www.crystallography.net/
#
# All data on this site have been placed in the public domain by the
# contributors.
#
data_1524556
loop_
_publ_author_name
'Holleck, H.'
'Nowotny, H.'
'Benesovsky, F.'
_publ_section_title
;
 Intermetallische Phasen mit beta-Wolfram-Struktur (V3 Pb, Nb3 Pb und V3
 Cd)
;
_journal_name_full               'Monatshefte fuer Chemie (-108,1977)'
_journal_page_first              473
_journal_page_last               476
_journal_volume                  94
_journal_year                    1963
_chemical_formula_sum            'Cd V3'
_chemical_name_systematic        'Cd V3'
_space_group_IT_number           221
_symmetry_space_group_name_Hall  '-P 4 2 3'
_symmetry_space_group_name_H-M   'P m -3 m'
_cell_angle_alpha                90
_cell_angle_beta                 90
_cell_angle_gamma                90
_cell_formula_units_Z            1
_cell_length_a                   4.943
_cell_length_b                   4.943
_cell_length_c                   4.943
_cell_volume                     120.774
_citation_journal_id_ASTM        MOCHAP
_cod_data_source_file            Holleck_MOCHAP_1963_714.cif
_cod_data_source_block           Cd1V3
_cod_original_cell_volume        120.7735
_cod_original_formula_sum        'Cd1 V3'
_cod_database_code               1524556
loop_
_symmetry_equiv_pos_as_xyz
x,y,z
-y,x,z
-x,-y,z
y,-x,z
x,-y,-z
y,x,-z
-x,y,-z
-y,-x,-z
z,x,y
-x,z,y
-z,-x,y
x,-z,y
z,-x,-y
x,z,-y
-z,x,-y
-x,-z,-y
y,z,x
y,-z,-x
z,y,-x
-y,z,-x
-z,-y,-x
-y,-z,x
z,-y,x
-z,y,x
-x,-y,-z
y,-x,-z
x,y,-z
-y,x,-z
-x,y,z
-y,-x,z
x,-y,z
y,x,z
-z,-x,-y
x,-z,-y
z,x,-y
-x,z,-y
-z,x,y
-x,-z,y
z,-x,y
x,z,y
-y,-z,-x
-y,z,x
-z,-y,x
y,-z,x
z,y,x
y,z,-x
-z,y,-x
z,-y,-x
loop_
_atom_site_label
_atom_site_type_symbol
_atom_site_fract_x
_atom_site_fract_y
_atom_site_fract_z
_atom_site_occupancy
_atom_site_U_iso_or_equiv
Cd1 Cd 0 0 0 1 0.0
V1 V 0.5 0 0.5 1 0.0
