#------------------------------------------------------------------------------
#$Date: 2015-07-11 16:29:22 +0300 (Sat, 11 Jul 2015) $
#$Revision: 144922 $
#$URL: svn://www.crystallography.net/cod/cif/1/52/42/1524231.cif $
#------------------------------------------------------------------------------
#
# This file is available in the Crystallography Open Database (COD),
# http://www.crystallography.net/
#
# All data on this site have been placed in the public domain by the
# contributors.
#
data_1524231
loop_
_publ_author_name
'Cockayne, B.'
'Raynor, G.V.'
_publ_section_title
;
 The apparent metallic valencies in solid solutions
;
_journal_name_full
;
Proceedings of the Royal Society of London, Series A: Mathematical and 
Physical Sciences (76,1906-)
;
_journal_page_first              175
_journal_page_last               187
_journal_volume                  261
_journal_year                    1961
_chemical_formula_sum            'Cu0.85 Ge0.15'
_chemical_name_systematic        '(Cu0.85 Ge0.15)'
_space_group_IT_number           194
_symmetry_space_group_name_Hall  '-P 6c 2c'
_symmetry_space_group_name_H-M   'P 63/m m c'
_cell_angle_alpha                90
_cell_angle_beta                 90
_cell_angle_gamma                120
_cell_formula_units_Z            2
_cell_length_a                   2.5923
_cell_length_b                   2.5923
_cell_length_c                   4.2245
_cell_volume                     24.585
_citation_journal_id_ASTM        PRLAAZ
_cod_data_source_file            Cockayne_PRLAAZ_1961_1481.cif
_cod_data_source_block           Cu0.85Ge0.15
_cod_original_cell_volume        24.58535
_cod_database_code               1524231
loop_
_symmetry_equiv_pos_as_xyz
x,y,z
x-y,x,z+1/2
-y,x-y,z
-x,-y,z+1/2
-x+y,-x,z
y,-x+y,z+1/2
-y,-x,-z+1/2
x-y,-y,-z
x,x-y,-z+1/2
y,x,-z
-x+y,y,-z+1/2
-x,-x+y,-z
-x,-y,-z
-x+y,-x,-z-1/2
y,-x+y,-z
x,y,-z-1/2
x-y,x,-z
-y,x-y,-z-1/2
y,x,z-1/2
-x+y,y,z
-x,-x+y,z-1/2
-y,-x,z
x-y,-y,z-1/2
x,x-y,z
loop_
_atom_site_label
_atom_site_type_symbol
_atom_site_fract_x
_atom_site_fract_y
_atom_site_fract_z
_atom_site_occupancy
_atom_site_U_iso_or_equiv
Cu1 Cu 0.3333 0.6667 0.25 0.85 0.0
Ge1 Ge 0.3333 0.6667 0.25 0.15 0.0
