#------------------------------------------------------------------------------
#$Date: 2016-02-13 21:28:24 +0200 (Sat, 13 Feb 2016) $
#$Revision: 176429 $
#$URL: svn://www.crystallography.net/cod/cif/1/52/49/1524912.cif $
#------------------------------------------------------------------------------
#
# This file is available in the Crystallography Open Database (COD),
# http://www.crystallography.net/
#
# All data on this site have been placed in the public domain by the
# contributors.
#
data_1524912
loop_
_publ_author_name
'McMasters, O.D.'
'O'Keefe, T.J.'
'Gschneidner, K.A.jr.'
_publ_section_title
;
 Dysprosium-lead system
;
_journal_name_full
'Transactions of the Metallurgical Society of Aime'
_journal_page_first              936
_journal_page_last               939
_journal_volume                  242
_journal_year                    1968
_chemical_formula_sum            'Dy Pb3'
_chemical_name_systematic        'Dy Pb3'
_space_group_IT_number           221
_symmetry_space_group_name_Hall  '-P 4 2 3'
_symmetry_space_group_name_H-M   'P m -3 m'
_cell_angle_alpha                90
_cell_angle_beta                 90
_cell_angle_gamma                90
_cell_formula_units_Z            1
_cell_length_a                   4.806
_cell_length_b                   4.806
_cell_length_c                   4.806
_cell_volume                     111.007
_citation_journal_id_ASTM        TMSAAB
_cod_data_source_file            McMasters_TMSAAB_1968_1810.cif
_cod_data_source_block           Dy1Pb3
_cod_original_cell_volume        111.0073
_cod_original_formula_sum        'Dy1 Pb3'
_cod_database_code               1524912
loop_
_symmetry_equiv_pos_as_xyz
x,y,z
-y,x,z
-x,-y,z
y,-x,z
x,-y,-z
y,x,-z
-x,y,-z
-y,-x,-z
z,x,y
-x,z,y
-z,-x,y
x,-z,y
z,-x,-y
x,z,-y
-z,x,-y
-x,-z,-y
y,z,x
y,-z,-x
z,y,-x
-y,z,-x
-z,-y,-x
-y,-z,x
z,-y,x
-z,y,x
-x,-y,-z
y,-x,-z
x,y,-z
-y,x,-z
-x,y,z
-y,-x,z
x,-y,z
y,x,z
-z,-x,-y
x,-z,-y
z,x,-y
-x,z,-y
-z,x,y
-x,-z,y
z,-x,y
x,z,y
-y,-z,-x
-y,z,x
-z,-y,x
y,-z,x
z,y,x
y,z,-x
-z,y,-x
z,-y,-x
loop_
_atom_site_label
_atom_site_type_symbol
_atom_site_fract_x
_atom_site_fract_y
_atom_site_fract_z
_atom_site_occupancy
_atom_site_U_iso_or_equiv
Dy1 Dy 0 0 0 1 0.0
Pb1 Pb 0 0.5 0.5 1 0.0
