#------------------------------------------------------------------------------
#$Date: 2016-02-13 21:28:24 +0200 (Sat, 13 Feb 2016) $
#$Revision: 176429 $
#$URL: svn://www.crystallography.net/cod/cif/1/52/49/1524999.cif $
#------------------------------------------------------------------------------
#
# This file is available in the Crystallography Open Database (COD),
# http://www.crystallography.net/
#
# All data on this site have been placed in the public domain by the
# contributors.
#
data_1524999
loop_
_publ_author_name
'Novy, V.F.'
'Vickery, R.C.'
'Kleber, E.V.'
_publ_section_title
;
 The gadolinium-iron system
;
_journal_name_full
'Transactions of the Metallurgical Society of Aime'
_journal_page_first              580
_journal_page_last               585
_journal_volume                  221
_journal_year                    1961
_chemical_formula_sum            'Fe5 Gd'
_chemical_name_systematic        'Fe5 Gd'
_space_group_IT_number           191
_symmetry_space_group_name_Hall  '-P 6 2'
_symmetry_space_group_name_H-M   'P 6/m m m'
_cell_angle_alpha                90
_cell_angle_beta                 90
_cell_angle_gamma                120
_cell_formula_units_Z            1
_cell_length_a                   4.92
_cell_length_b                   4.92
_cell_length_c                   4.11
_cell_volume                     86.159
_citation_journal_id_ASTM        TMSAAB
_cod_data_source_file            Novy_TMSAAB_1961_1931.cif
_cod_data_source_block           Fe5Gd1
_cod_original_cell_volume        86.1594
_cod_original_formula_sum        'Fe5 Gd1'
_cod_database_code               1524999
loop_
_symmetry_equiv_pos_as_xyz
x,y,z
x-y,x,z
-y,x-y,z
-x,-y,z
-x+y,-x,z
y,-x+y,z
-y,-x,-z
x-y,-y,-z
x,x-y,-z
y,x,-z
-x+y,y,-z
-x,-x+y,-z
-x,-y,-z
-x+y,-x,-z
y,-x+y,-z
x,y,-z
x-y,x,-z
-y,x-y,-z
y,x,z
-x+y,y,z
-x,-x+y,z
-y,-x,z
x-y,-y,z
x,x-y,z
loop_
_atom_site_label
_atom_site_type_symbol
_atom_site_fract_x
_atom_site_fract_y
_atom_site_fract_z
_atom_site_occupancy
_atom_site_U_iso_or_equiv
Fe2 Fe 0.5 0 0.5 1 0.0
Fe1 Fe 0.3333 0.6667 0 1 0.0
Gd1 Gd 0 0 0 1 0.0
