#------------------------------------------------------------------------------
#$Date: 2015-07-11 17:13:46 +0300 (Sat, 11 Jul 2015) $
#$Revision: 145186 $
#$URL: svn://www.crystallography.net/cod/cif/1/52/44/1524422.cif $
#------------------------------------------------------------------------------
#
# This file is available in the Crystallography Open Database (COD),
# http://www.crystallography.net/
#
# All data on this site have been placed in the public domain by the
# contributors.
#
data_1524422
loop_
_publ_author_name
'Givord, F.'
'Lemaire, R.'
_publ_section_title
;
 Structure cristalline du compose intermetallique (Gd2/3 2Fe1/3) Fe5
;
_journal_name_full               'Journal of the Less-Common Metals'
_journal_page_first              463
_journal_page_last               568
_journal_volume                  21
_journal_year                    1970
_chemical_formula_sum            'Fe17 Gd2'
_chemical_name_systematic        'Fe17 Gd2'
_space_group_IT_number           194
_symmetry_space_group_name_Hall  '-P 6c 2c'
_symmetry_space_group_name_H-M   'P 63/m m c'
_cell_angle_alpha                90
_cell_angle_beta                 90
_cell_angle_gamma                120
_cell_formula_units_Z            2
_cell_length_a                   8.496
_cell_length_b                   8.496
_cell_length_c                   8.345
_cell_volume                     521.658
_citation_journal_id_ASTM        JCOMAH
_cod_data_source_file            Givord_JCOMAH_1970_1933.cif
_cod_data_source_block           Fe17Gd2
_cod_original_cell_volume        521.6582
_cod_database_code               1524422
loop_
_symmetry_equiv_pos_as_xyz
x,y,z
x-y,x,z+1/2
-y,x-y,z
-x,-y,z+1/2
-x+y,-x,z
y,-x+y,z+1/2
-y,-x,-z+1/2
x-y,-y,-z
x,x-y,-z+1/2
y,x,-z
-x+y,y,-z+1/2
-x,-x+y,-z
-x,-y,-z
-x+y,-x,-z-1/2
y,-x+y,-z
x,y,-z-1/2
x-y,x,-z
-y,x-y,-z-1/2
y,x,z-1/2
-x+y,y,z
-x,-x+y,z-1/2
-y,-x,z
x-y,-y,z-1/2
x,x-y,z
loop_
_atom_site_label
_atom_site_type_symbol
_atom_site_fract_x
_atom_site_fract_y
_atom_site_fract_z
_atom_site_occupancy
_atom_site_U_iso_or_equiv
Fe4 Fe 0.167 0.334 0.985 1 0.0
Gd1 Gd 0 0 0.25 1 0.0
Fe3 Fe 0.333 0.969 0.25 1 0.0
Gd2 Gd 0.3333 0.6667 0.75 1 0.0
Fe1 Fe 0.3333 0.6667 0.105 1 0.0
Fe2 Fe 0.5 0 0 1 0.0
