#------------------------------------------------------------------------------
#$Date: 2015-07-11 17:59:11 +0300 (Sat, 11 Jul 2015) $
#$Revision: 145480 $
#$URL: svn://www.crystallography.net/cod/cif/1/52/46/1524672.cif $
#------------------------------------------------------------------------------
#
# This file is available in the Crystallography Open Database (COD),
# http://www.crystallography.net/
#
# All data on this site have been placed in the public domain by the
# contributors.
#
data_1524672
loop_
_publ_author_name
'Khan, Y.'
_publ_section_title
;
 The crystal structures of R2 Co17 intermetallic compounds
;
_journal_name_full
;
Bulletin de la Societe Francaise de Mineralogie et de Cristallographie 
(72,1949-100,1977)
;
_journal_page_first              580
_journal_page_last               585
_journal_volume                  88
_journal_year                    1965
_chemical_formula_sum            'Co5.67 Gd0.67'
_chemical_name_systematic        'Co5.67 Gd0.67'
_space_group_IT_number           191
_symmetry_space_group_name_Hall  '-P 6 2'
_symmetry_space_group_name_H-M   'P 6/m m m'
_cell_angle_alpha                90
_cell_angle_beta                 90
_cell_angle_gamma                120
_cell_formula_units_Z            1
_cell_length_a                   4.837
_cell_length_b                   4.837
_cell_length_c                   4.066
_cell_volume                     82.385
_citation_journal_id_ASTM        BUFCAE
_cod_data_source_file            Khan_BUFCAE_1965_1046.cif
_cod_data_source_block           Co5.67Gd0.67
_cod_original_cell_volume        82.38538
_cod_database_code               1524672
loop_
_symmetry_equiv_pos_as_xyz
x,y,z
x-y,x,z
-y,x-y,z
-x,-y,z
-x+y,-x,z
y,-x+y,z
-y,-x,-z
x-y,-y,-z
x,x-y,-z
y,x,-z
-x+y,y,-z
-x,-x+y,-z
-x,-y,-z
-x+y,-x,-z
y,-x+y,-z
x,y,-z
x-y,x,-z
-y,x-y,-z
y,x,z
-x+y,y,z
-x,-x+y,z
-y,-x,z
x-y,-y,z
x,x-y,z
loop_
_atom_site_label
_atom_site_type_symbol
_atom_site_fract_x
_atom_site_fract_y
_atom_site_fract_z
_atom_site_occupancy
_atom_site_U_iso_or_equiv
Gd1 Gd 0 0 0 0.67 0.0
Co3 Co 0.5 0 0.5 1 0.0
Co2 Co 0 0 0.296 0.333 0.0
Co1 Co 0.6667 0.3333 0 1 0.0
