#------------------------------------------------------------------------------
#$Date: 2016-02-13 21:28:24 +0200 (Sat, 13 Feb 2016) $
#$Revision: 176429 $
#$URL: svn://www.crystallography.net/cod/cif/1/52/45/1524566.cif $
#------------------------------------------------------------------------------
#
# This file is available in the Crystallography Open Database (COD),
# http://www.crystallography.net/
#
# All data on this site have been placed in the public domain by the
# contributors.
#
data_1524566
loop_
_publ_author_name
'Hume-Rothery, W.'
'Raynor, G.V.'
_publ_section_title
;
 The equilibrium and lattice-spacing telations in the system
 magnesium-cadmium
;
_journal_name_full
;
Proceedings of the Royal Society of London, Series A: Mathematical and 
Physical Sciences (76,1906-)
;
_journal_page_first              471
_journal_page_last               486
_journal_volume                  174
_journal_year                    1940
_chemical_formula_sum            'Cd Mg'
_chemical_name_systematic        'Cd Mg'
_space_group_IT_number           194
_symmetry_space_group_name_Hall  '-P 6c 2c'
_symmetry_space_group_name_H-M   'P 63/m m c'
_cell_angle_alpha                90
_cell_angle_beta                 90
_cell_angle_gamma                120
_cell_formula_units_Z            1
_cell_length_a                   3.141
_cell_length_b                   3.141
_cell_length_c                   5.1512
_cell_volume                     44.012
_citation_journal_id_ASTM        PRLAAZ
_cod_data_source_file            Hume-Rothery_PRLAAZ_1940_657.cif
_cod_data_source_block           Cd1Mg1
_cod_original_cell_volume        44.01239
_cod_original_formula_sum        'Cd1 Mg1'
_cod_database_code               1524566
loop_
_symmetry_equiv_pos_as_xyz
x,y,z
x-y,x,z+1/2
-y,x-y,z
-x,-y,z+1/2
-x+y,-x,z
y,-x+y,z+1/2
-y,-x,-z+1/2
x-y,-y,-z
x,x-y,-z+1/2
y,x,-z
-x+y,y,-z+1/2
-x,-x+y,-z
-x,-y,-z
-x+y,-x,-z-1/2
y,-x+y,-z
x,y,-z-1/2
x-y,x,-z
-y,x-y,-z-1/2
y,x,z-1/2
-x+y,y,z
-x,-x+y,z-1/2
-y,-x,z
x-y,-y,z-1/2
x,x-y,z
loop_
_atom_site_label
_atom_site_type_symbol
_atom_site_fract_x
_atom_site_fract_y
_atom_site_fract_z
_atom_site_occupancy
_atom_site_U_iso_or_equiv
Cd1 Cd 0.3333 0.6667 0.25 0.5 0.0
Mg1 Mg 0.3333 0.6667 0.25 0.5 0.0
