#------------------------------------------------------------------------------
#$Date: 2017-10-13 02:32:00 +0300 (Fri, 13 Oct 2017) $
#$Revision: 201954 $
#$URL: file:///home/coder/svn-repositories/cod/cif/1/01/00/1010091.cif $
#------------------------------------------------------------------------------
#
# This file is available in the Crystallography Open Database (COD),
# http://www.crystallography.net/
#
# All data on this site have been placed in the public domain by the
# contributors.
#
data_1010091
loop_
_publ_author_name
'Harris, P M'
'Mack, E'
'Blake, F C'
_publ_section_title
;
The Atomic Arrangement in the Crystal of Orthorhombic Iodine
;
_journal_coden_ASTM              JACSAT
_journal_name_full               'Journal of the American Chemical Society'
_journal_page_first              1583
_journal_page_last               1600
_journal_paper_doi               10.1021/ja01393a009
_journal_volume                  50
_journal_year                    1928
_chemical_formula_structural     I2
_chemical_formula_sum            I2
_chemical_name_systematic        Diiodine
_space_group_IT_number           64
_symmetry_cell_setting           orthorhombic
_symmetry_Int_Tables_number      64
_symmetry_space_group_name_Hall  '-C 2ac 2'
_symmetry_space_group_name_H-M   'C m c a'
_cell_angle_alpha                90
_cell_angle_beta                 90
_cell_angle_gamma                90
_cell_formula_units_Z            4
_cell_length_a                   7.255
_cell_length_b                   4.795
_cell_length_c                   9.78
_cell_volume                     340.2
_cod_database_code               1010091
loop_
_symmetry_equiv_pos_as_xyz
x,y,z
x,-y,-z
x,1/2-y,1/2+z
x,1/2+y,1/2-z
-x,-y,-z
-x,y,z
-x,1/2+y,1/2-z
-x,1/2-y,1/2+z
1/2+x,1/2+y,z
1/2+x,1/2-y,-z
1/2+x,-y,1/2+z
1/2+x,y,1/2-z
1/2-x,1/2-y,-z
1/2-x,1/2+y,z
1/2-x,y,1/2-z
1/2-x,-y,1/2+z
loop_
_atom_site_label
_atom_site_type_symbol
_atom_site_symmetry_multiplicity
_atom_site_Wyckoff_symbol
_atom_site_fract_x
_atom_site_fract_y
_atom_site_fract_z
_atom_site_occupancy
_atom_site_attached_hydrogens
_atom_site_calc_flag
I1 I0 8 f 0. 0.15 0.117 1. 0 d
loop_
_atom_type_symbol
_atom_type_oxidation_number
I0 0.000
loop_
_cod_related_entry_id
_cod_related_entry_database
_cod_related_entry_code
1 ChemSpider 785
