#------------------------------------------------------------------------------
#$Date: 2015-01-27 21:58:39 +0200 (Tue, 27 Jan 2015) $
#$Revision: 130149 $
#$URL: svn://www.crystallography.net/cod/cif/1/01/00/1010041.cif $
#------------------------------------------------------------------------------
#
# This file is available in the Crystallography Open Database (COD),
# http://www.crystallography.net/
#
# All data on this site have been placed in the public domain by the
# contributors.
#
data_1010041
loop_
_publ_author_name
'Thomassen, L'
_publ_section_title
;
Ueber Kristallstrukturen einiqer binaerer Verbindungen der
Platinmetalle II
;
_journal_coden_ASTM              ZPCBAL
_journal_name_full
;
Zeitschrift fuer Physikalische Chemie, Abteilung B: Chemie der
Elementarprozesse, Aufbau der Materie
;
_journal_page_first              277
_journal_page_last               287
_journal_volume                  4
_journal_year                    1929
_chemical_formula_structural     'Pt Sb'
_chemical_formula_sum            'Pt Sb'
_chemical_name_systematic        'Platinum(III) antimonide'
_space_group_IT_number           194
_symmetry_cell_setting           hexagonal
_symmetry_Int_Tables_number      194
_symmetry_space_group_name_Hall  '-P 6c 2c'
_symmetry_space_group_name_H-M   'P 63/m m c'
_cell_angle_alpha                90
_cell_angle_beta                 90
_cell_angle_gamma                120
_cell_formula_units_Z            2
_cell_length_a                   4.130(4)
_cell_length_b                   4.130(4)
_cell_length_c                   5.472(5)
_cell_volume                     80.8
_cod_database_code               1010041
loop_
_symmetry_equiv_pos_as_xyz
x,y,z
-y,x-y,z
y-x,-x,z
-y,-x,z
y-x,y,z
x,x-y,z
-x,-y,-z
y,y-x,-z
x-y,x,-z
y,x,-z
x-y,-y,-z
-x,y-x,-z
-x,-y,1/2+z
y,y-x,1/2+z
x-y,x,1/2+z
y,x,1/2+z
x-y,-y,1/2+z
-x,y-x,1/2+z
x,y,1/2-z
-y,x-y,1/2-z
y-x,-x,1/2-z
-y,-x,1/2-z
y-x,y,1/2-z
x,x-y,1/2-z
loop_
_atom_site_label
_atom_site_type_symbol
_atom_site_symmetry_multiplicity
_atom_site_Wyckoff_symbol
_atom_site_fract_x
_atom_site_fract_y
_atom_site_fract_z
_atom_site_occupancy
_atom_site_attached_hydrogens
_atom_site_calc_flag
Pt1 Pt0 2 a 0. 0. 0. 1. 0 d
Sb1 Sb0 2 c 0.3333 0.6667 0.25 1. 0 d
loop_
_atom_type_symbol
_atom_type_oxidation_number
Pt0 0.000
Sb0 0.000
