#------------------------------------------------------------------------------
#$Date: 2016-02-13 21:28:24 +0200 (Sat, 13 Feb 2016) $
#$Revision: 176429 $
#$URL: svn://www.crystallography.net/cod/cif/1/54/12/1541275.cif $
#------------------------------------------------------------------------------
#
# This file is available in the Crystallography Open Database (COD),
# http://www.crystallography.net/
#
# All data on this site have been placed in the public domain by the
# contributors.
#
data_1541275
loop_
_publ_author_name
'Mulder, F.M.'
'Buschow, K.H.J.'
'Thiel, R.C.'
_publ_section_title
;
 155Gd Moessbauer effect in Al B2-type compounds
;
_journal_name_full               'Journal of Alloys Compd.'
_journal_page_first              169
_journal_page_last               174
_journal_volume                  205
_journal_year                    1994
_chemical_formula_sum            'Gd Si1.66'
_chemical_name_systematic        'Gd Si2'
_space_group_IT_number           191
_symmetry_space_group_name_Hall  '-P 6 2'
_symmetry_space_group_name_H-M   'P 6/m m m'
_cell_angle_alpha                90
_cell_angle_beta                 90
_cell_angle_gamma                120
_cell_formula_units_Z            1
_cell_length_a                   3.869
_cell_length_b                   3.869
_cell_length_c                   4.182
_cell_volume                     54.214
_citation_journal_id_ASTM        JALCEU
_cod_data_source_file            Mulder_JALCEU_1994_955.cif
_cod_data_source_block           Gd1Si1.66
_cod_original_cell_volume        54.21408
_cod_original_formula_sum        'Gd1 Si1.66'
_cod_database_code               1541275
loop_
_symmetry_equiv_pos_as_xyz
x,y,z
x-y,x,z
-y,x-y,z
-x,-y,z
-x+y,-x,z
y,-x+y,z
-y,-x,-z
x-y,-y,-z
x,x-y,-z
y,x,-z
-x+y,y,-z
-x,-x+y,-z
-x,-y,-z
-x+y,-x,-z
y,-x+y,-z
x,y,-z
x-y,x,-z
-y,x-y,-z
y,x,z
-x+y,y,z
-x,-x+y,z
-y,-x,z
x-y,-y,z
x,x-y,z
loop_
_atom_site_label
_atom_site_type_symbol
_atom_site_fract_x
_atom_site_fract_y
_atom_site_fract_z
_atom_site_occupancy
_atom_site_U_iso_or_equiv
Si1 Si 0.3333 0.6667 0.5 0.83 0.0
Gd1 Gd 0 0 0 1 0.0
