#------------------------------------------------------------------------------
#$Date: 2016-01-01 14:33:34 +0200 (Fri, 01 Jan 2016) $
#$Revision: 172356 $
#$URL: svn://www.crystallography.net/cod/cif/1/54/11/1541123.cif $
#------------------------------------------------------------------------------
#
# This file is available in the Crystallography Open Database (COD),
# http://www.crystallography.net/
#
# All data on this site have been placed in the public domain by the
# contributors.
#
data_1541123
loop_
_publ_author_name
'Peterson, D.T.'
'Ostenson, J.E.'
'Taylor, W.A.'
_publ_section_title
;
 Superconducting temperatures of quenched thoriumzirconium alloys
;
_journal_name_full               'Journal of the Less-Common Metals'
_journal_page_first              115
_journal_page_last               121
_journal_volume                  60
_journal_year                    1978
_chemical_formula_sum            'Th0.2 Zr1.8'
_chemical_name_systematic        '(Th Zr9)0.2'
_space_group_IT_number           194
_symmetry_space_group_name_Hall  '-P 6c 2c'
_symmetry_space_group_name_H-M   'P 63/m m c'
_cell_angle_alpha                90
_cell_angle_beta                 90
_cell_angle_gamma                120
_cell_formula_units_Z            1
_cell_length_a                   3.258
_cell_length_b                   3.258
_cell_length_c                   5.248
_cell_volume                     48.242
_citation_journal_id_ASTM        JCOMAH
_cod_data_source_file            Peterson_JCOMAH_1978_168.cif
_cod_data_source_block           Th0.2Zr1.8
_cod_original_cell_volume        48.24215
_cod_database_code               1541123
loop_
_symmetry_equiv_pos_as_xyz
x,y,z
x-y,x,z+1/2
-y,x-y,z
-x,-y,z+1/2
-x+y,-x,z
y,-x+y,z+1/2
-y,-x,-z+1/2
x-y,-y,-z
x,x-y,-z+1/2
y,x,-z
-x+y,y,-z+1/2
-x,-x+y,-z
-x,-y,-z
-x+y,-x,-z-1/2
y,-x+y,-z
x,y,-z-1/2
x-y,x,-z
-y,x-y,-z-1/2
y,x,z-1/2
-x+y,y,z
-x,-x+y,z-1/2
-y,-x,z
x-y,-y,z-1/2
x,x-y,z
loop_
_atom_site_label
_atom_site_type_symbol
_atom_site_fract_x
_atom_site_fract_y
_atom_site_fract_z
_atom_site_occupancy
_atom_site_U_iso_or_equiv
Zr1 Zr 0.3333 0.6667 0.25 0.9 0.0
Th1 Th 0.3333 0.6667 0.25 0.1 0.0
