#------------------------------------------------------------------------------
#$Date: 2016-01-03 11:33:58 +0200 (Sun, 03 Jan 2016) $
#$Revision: 172502 $
#$URL: svn://www.crystallography.net/cod/cif/1/54/12/1541222.cif $
#------------------------------------------------------------------------------
#
# This file is available in the Crystallography Open Database (COD),
# http://www.crystallography.net/
#
# All data on this site have been placed in the public domain by the
# contributors.
#
data_1541222
loop_
_publ_author_name
'McHargue, C.J.'
'Adair, S.E.jr.'
'Hammond, J.P.'
_publ_section_title
;
 Effect of solid solution alloying on the cold-rolled texture of titanium
;
_journal_name_full
;
Transactions of the American Institute of Mining, Metallurgical and Petroleum 
Engineers
;
_journal_page_first              1199
_journal_page_last               1203
_journal_volume                  197
_journal_year                    1953
_chemical_formula_sum            'Ti1.83 Zr0.17'
_chemical_name_systematic        'Ti1.83 Zr0.17'
_space_group_IT_number           194
_symmetry_space_group_name_Hall  '-P 6c 2c'
_symmetry_space_group_name_H-M   'P 63/m m c'
_cell_angle_alpha                90
_cell_angle_beta                 90
_cell_angle_gamma                120
_cell_formula_units_Z            1
_cell_length_a                   2.97
_cell_length_b                   2.97
_cell_length_c                   4.74
_cell_volume                     36.209
_citation_journal_id_ASTM        TAIMAF
_cod_data_source_file            McHargue_TAIMAF_1953_185.cif
_cod_data_source_block           Ti1.83Zr0.17
_cod_original_cell_volume        36.20945
_cod_database_code               1541222
loop_
_symmetry_equiv_pos_as_xyz
x,y,z
x-y,x,z+1/2
-y,x-y,z
-x,-y,z+1/2
-x+y,-x,z
y,-x+y,z+1/2
-y,-x,-z+1/2
x-y,-y,-z
x,x-y,-z+1/2
y,x,-z
-x+y,y,-z+1/2
-x,-x+y,-z
-x,-y,-z
-x+y,-x,-z-1/2
y,-x+y,-z
x,y,-z-1/2
x-y,x,-z
-y,x-y,-z-1/2
y,x,z-1/2
-x+y,y,z
-x,-x+y,z-1/2
-y,-x,z
x-y,-y,z-1/2
x,x-y,z
loop_
_atom_site_label
_atom_site_type_symbol
_atom_site_fract_x
_atom_site_fract_y
_atom_site_fract_z
_atom_site_occupancy
_atom_site_U_iso_or_equiv
Ti1 Ti 0.3333 0.6667 0.25 0.915 0.0
Zr1 Zr 0.3333 0.6667 0.25 0.085 0.0
