#------------------------------------------------------------------------------
#$Date: 2016-02-13 21:28:24 +0200 (Sat, 13 Feb 2016) $
#$Revision: 176429 $
#$URL: svn://www.crystallography.net/cod/cif/1/54/12/1541214.cif $
#------------------------------------------------------------------------------
#
# This file is available in the Crystallography Open Database (COD),
# http://www.crystallography.net/
#
# All data on this site have been placed in the public domain by the
# contributors.
#
data_1541214
loop_
_publ_author_name
'Mayer, I.P.'
'Banks, E.'
'Post, B.'
_publ_section_title
;
 High-temperature X-ray study of rare-earth silicides
;
_journal_name_full               'Journal of Physical Chemistry'
_journal_page_first              693
_journal_page_last               696
_journal_volume                  66
_journal_year                    1962
_chemical_formula_sum            'Si2 Tm'
_chemical_name_systematic        'Tm Si2'
_space_group_IT_number           191
_symmetry_space_group_name_Hall  '-P 6 2'
_symmetry_space_group_name_H-M   'P 6/m m m'
_cell_angle_alpha                90
_cell_angle_beta                 90
_cell_angle_gamma                120
_cell_formula_units_Z            1
_cell_length_a                   3.76
_cell_length_b                   3.76
_cell_length_c                   4.07
_cell_volume                     49.831
_citation_journal_id_ASTM        JPCHAX
_cod_data_source_file            Mayer_JPCHAX_1962_16.cif
_cod_data_source_block           Si2Tm1
_cod_original_cell_volume        49.83113
_cod_original_formula_sum        'Si2 Tm1'
_cod_database_code               1541214
loop_
_symmetry_equiv_pos_as_xyz
x,y,z
x-y,x,z
-y,x-y,z
-x,-y,z
-x+y,-x,z
y,-x+y,z
-y,-x,-z
x-y,-y,-z
x,x-y,-z
y,x,-z
-x+y,y,-z
-x,-x+y,-z
-x,-y,-z
-x+y,-x,-z
y,-x+y,-z
x,y,-z
x-y,x,-z
-y,x-y,-z
y,x,z
-x+y,y,z
-x,-x+y,z
-y,-x,z
x-y,-y,z
x,x-y,z
loop_
_atom_site_label
_atom_site_type_symbol
_atom_site_fract_x
_atom_site_fract_y
_atom_site_fract_z
_atom_site_occupancy
_atom_site_U_iso_or_equiv
Si1 Si 0.3333 0.6667 0.5 1 0.0
Tm1 Tm 0 0 0 1 0.0
