#------------------------------------------------------------------------------
#$Date: 2016-02-13 21:28:24 +0200 (Sat, 13 Feb 2016) $
#$Revision: 176429 $
#$URL: svn://www.crystallography.net/cod/cif/1/54/12/1541249.cif $
#------------------------------------------------------------------------------
#
# This file is available in the Crystallography Open Database (COD),
# http://www.crystallography.net/
#
# All data on this site have been placed in the public domain by the
# contributors.
#
data_1541249
loop_
_publ_author_name
'Morin, P.'
'Pierre, J.'
_publ_section_title
;
 Thermal expansion and magnetorestriction in rare-earth equiatomic
 compounds with Cu, Ag, Zn
;
_journal_name_full
'Physica Status Solidi, Sectio A: Applied Research'
_journal_page_first              161
_journal_page_last               166
_journal_volume                  21
_journal_year                    1974
_chemical_formula_sum            'Tb Zn'
_chemical_name_systematic        'Tb Zn'
_space_group_IT_number           221
_symmetry_space_group_name_Hall  '-P 4 2 3'
_symmetry_space_group_name_H-M   'P m -3 m'
_cell_angle_alpha                90
_cell_angle_beta                 90
_cell_angle_gamma                90
_cell_formula_units_Z            1
_cell_length_a                   3.57
_cell_length_b                   3.57
_cell_length_c                   3.57
_cell_volume                     45.499
_citation_journal_id_ASTM        PSSABA
_cod_data_source_file            Morin_PSSABA_1974_118.cif
_cod_data_source_block           Tb1Zn1
_cod_original_cell_volume        45.49929
_cod_original_formula_sum        'Tb1 Zn1'
_cod_database_code               1541249
loop_
_symmetry_equiv_pos_as_xyz
x,y,z
-y,x,z
-x,-y,z
y,-x,z
x,-y,-z
y,x,-z
-x,y,-z
-y,-x,-z
z,x,y
-x,z,y
-z,-x,y
x,-z,y
z,-x,-y
x,z,-y
-z,x,-y
-x,-z,-y
y,z,x
y,-z,-x
z,y,-x
-y,z,-x
-z,-y,-x
-y,-z,x
z,-y,x
-z,y,x
-x,-y,-z
y,-x,-z
x,y,-z
-y,x,-z
-x,y,z
-y,-x,z
x,-y,z
y,x,z
-z,-x,-y
x,-z,-y
z,x,-y
-x,z,-y
-z,x,y
-x,-z,y
z,-x,y
x,z,y
-y,-z,-x
-y,z,x
-z,-y,x
y,-z,x
z,y,x
y,z,-x
-z,y,-x
z,-y,-x
loop_
_atom_site_label
_atom_site_type_symbol
_atom_site_fract_x
_atom_site_fract_y
_atom_site_fract_z
_atom_site_occupancy
_atom_site_U_iso_or_equiv
Zn1 Zn 0.5 0.5 0.5 1 0.0
Tb1 Tb 0 0 0 1 0.0
