#------------------------------------------------------------------------------
#$Date: 2016-02-13 21:28:24 +0200 (Sat, 13 Feb 2016) $
#$Revision: 176429 $
#$URL: svn://www.crystallography.net/cod/cif/1/54/12/1541295.cif $
#------------------------------------------------------------------------------
#
# This file is available in the Crystallography Open Database (COD),
# http://www.crystallography.net/
#
# All data on this site have been placed in the public domain by the
# contributors.
#
data_1541295
loop_
_publ_author_name
'Nesper, R.'
'von Schnering, H.G.'
'Curda, J.'
_publ_section_title
;
 Binary and ternary silicides of rare earth metals
;
_journal_name_full
;
Solid Compound of Transition Elements, Int. Conference Stuttgart 1979
;
_journal_page_first              150
_journal_page_last               152
_journal_volume                  1979
_journal_year                    1979
_chemical_formula_sum            'Si2 Yb'
_chemical_name_systematic        'Yb Si2'
_space_group_IT_number           191
_symmetry_space_group_name_Hall  '-P 6 2'
_symmetry_space_group_name_H-M   'P 6/m m m'
_cell_angle_alpha                90
_cell_angle_beta                 90
_cell_angle_gamma                120
_cell_formula_units_Z            1
_cell_length_a                   3.7619
_cell_length_b                   3.7619
_cell_length_c                   4.092
_cell_volume                     50.151
_citation_journal_id_ASTM        SCOTE5
_cod_data_source_file            Nesper_SCOTE5_1979_45.cif
_cod_data_source_block           Si2Yb1
_cod_original_cell_volume        50.15113
_cod_original_formula_sum        'Si2 Yb1'
_cod_database_code               1541295
loop_
_symmetry_equiv_pos_as_xyz
x,y,z
x-y,x,z
-y,x-y,z
-x,-y,z
-x+y,-x,z
y,-x+y,z
-y,-x,-z
x-y,-y,-z
x,x-y,-z
y,x,-z
-x+y,y,-z
-x,-x+y,-z
-x,-y,-z
-x+y,-x,-z
y,-x+y,-z
x,y,-z
x-y,x,-z
-y,x-y,-z
y,x,z
-x+y,y,z
-x,-x+y,z
-y,-x,z
x-y,-y,z
x,x-y,z
loop_
_atom_site_label
_atom_site_type_symbol
_atom_site_fract_x
_atom_site_fract_y
_atom_site_fract_z
_atom_site_occupancy
_atom_site_U_iso_or_equiv
Yb1 Yb 0 0 0 1 0.0
Si1 Si 0.3333 0.6667 0.5 1 0.0
