#------------------------------------------------------------------------------
#$Date: 2016-01-03 14:16:52 +0200 (Sun, 03 Jan 2016) $
#$Revision: 173344 $
#$URL: svn://www.crystallography.net/cod/cif/1/54/18/1541821.cif $
#------------------------------------------------------------------------------
#
# This file is available in the Crystallography Open Database (COD),
# http://www.crystallography.net/
#
# All data on this site have been placed in the public domain by the
# contributors.
#
data_1541821
loop_
_publ_author_name
'Broadley, J.S.'
'Robertson, J.M.'
_publ_section_title
;
 Structure of dinitrogen tetroxide
;
_journal_name_full               'Nature (London)'
_journal_page_first              915
_journal_page_last               915
_journal_volume                  164
_journal_year                    1949
_chemical_formula_sum            'N2 O4'
_chemical_name_systematic        'N2 O4'
_space_group_IT_number           204
_symmetry_space_group_name_Hall  '-I 2 2 3'
_symmetry_space_group_name_H-M   'I m -3'
_cell_angle_alpha                90
_cell_angle_beta                 90
_cell_angle_gamma                90
_cell_formula_units_Z            6
_cell_length_a                   7.77
_cell_length_b                   7.77
_cell_length_c                   7.77
_cell_volume                     469.097
_citation_journal_id_ASTM        NATUAS
_cod_data_source_file            Broadley_NATUAS_1949_1112.cif
_cod_data_source_block           N2O4
_cod_original_cell_volume        469.0974
_cod_database_code               1541821
loop_
_symmetry_equiv_pos_as_xyz
x,y,z
-x,-y,z
x,-y,-z
-x,y,-z
z,x,y
-z,-x,y
z,-x,-y
-z,x,-y
y,z,x
y,-z,-x
-y,z,-x
-y,-z,x
-x,-y,-z
x,y,-z
-x,y,z
x,-y,z
-z,-x,-y
z,x,-y
-z,x,y
z,-x,y
-y,-z,-x
-y,z,x
y,-z,x
y,z,-x
x+1/2,y+1/2,z+1/2
-x+1/2,-y+1/2,z+1/2
x+1/2,-y+1/2,-z+1/2
-x+1/2,y+1/2,-z+1/2
z+1/2,x+1/2,y+1/2
-z+1/2,-x+1/2,y+1/2
z+1/2,-x+1/2,-y+1/2
-z+1/2,x+1/2,-y+1/2
y+1/2,z+1/2,x+1/2
y+1/2,-z+1/2,-x+1/2
-y+1/2,z+1/2,-x+1/2
-y+1/2,-z+1/2,x+1/2
-x+1/2,-y+1/2,-z+1/2
x+1/2,y+1/2,-z+1/2
-x+1/2,y+1/2,z+1/2
x+1/2,-y+1/2,z+1/2
-z+1/2,-x+1/2,-y+1/2
z+1/2,x+1/2,-y+1/2
-z+1/2,x+1/2,y+1/2
z+1/2,-x+1/2,y+1/2
-y+1/2,-z+1/2,-x+1/2
-y+1/2,z+1/2,x+1/2
y+1/2,-z+1/2,x+1/2
y+1/2,z+1/2,-x+1/2
loop_
_atom_site_label
_atom_site_type_symbol
_atom_site_fract_x
_atom_site_fract_y
_atom_site_fract_z
_atom_site_occupancy
_atom_site_U_iso_or_equiv
N1 N+4 0.39 0 0 1 0.0
O1 O-2 0 0.33 0.13 1 0.0
