#------------------------------------------------------------------------------
#$Date: 2016-01-03 14:19:58 +0200 (Sun, 03 Jan 2016) $
#$Revision: 173363 $
#$URL: svn://www.crystallography.net/cod/cif/1/54/18/1541833.cif $
#------------------------------------------------------------------------------
#
# This file is available in the Crystallography Open Database (COD),
# http://www.crystallography.net/
#
# All data on this site have been placed in the public domain by the
# contributors.
#
data_1541833
loop_
_publ_author_name
'Zheng Nanfeng'
'Wang Bing'
'Bu Xianhui'
'Feng Pingyun'
_publ_section_title
;
 Microporous and photoluminescent chalcogenide zeolite analogs
;
_journal_name_full               Science
_journal_page_first              2366
_journal_page_last               2369
_journal_volume                  298
_journal_year                    2002
_chemical_formula_sum            'Ga4 Se8'
_chemical_name_systematic        '(Ga4 Se8) (C13 H26 N2)'
_space_group_IT_number           217
_symmetry_space_group_name_Hall  'I -4 2 3'
_symmetry_space_group_name_H-M   'I -4 3 m'
_cell_angle_alpha                90
_cell_angle_beta                 90
_cell_angle_gamma                90
_cell_formula_units_Z            12
_cell_length_a                   21.893
_cell_length_b                   21.893
_cell_length_c                   21.893
_cell_volume                     10493.390
_citation_journal_id_ASTM        SCIEAS
_cod_data_source_file            ZhengNanfeng_SCIEAS_2002_521.cif
_cod_data_source_block           Ga4Se8
_cod_original_cell_volume        10493.39
_cod_database_code               1541833
loop_
_symmetry_equiv_pos_as_xyz
x,y,z
y,-x,-z
-x,-y,z
-y,x,-z
x,-y,-z
-y,-x,z
-x,y,-z
y,x,z
z,x,y
x,-z,-y
-z,-x,y
-x,z,-y
z,-x,-y
-x,-z,y
-z,x,-y
x,z,y
y,z,x
y,-z,-x
-z,-y,x
-y,z,-x
z,y,x
-y,-z,x
-z,y,-x
z,-y,-x
x+1/2,y+1/2,z+1/2
y+1/2,-x+1/2,-z+1/2
-x+1/2,-y+1/2,z+1/2
-y+1/2,x+1/2,-z+1/2
x+1/2,-y+1/2,-z+1/2
-y+1/2,-x+1/2,z+1/2
-x+1/2,y+1/2,-z+1/2
y+1/2,x+1/2,z+1/2
z+1/2,x+1/2,y+1/2
x+1/2,-z+1/2,-y+1/2
-z+1/2,-x+1/2,y+1/2
-x+1/2,z+1/2,-y+1/2
z+1/2,-x+1/2,-y+1/2
-x+1/2,-z+1/2,y+1/2
-z+1/2,x+1/2,-y+1/2
x+1/2,z+1/2,y+1/2
y+1/2,z+1/2,x+1/2
y+1/2,-z+1/2,-x+1/2
-z+1/2,-y+1/2,x+1/2
-y+1/2,z+1/2,-x+1/2
z+1/2,y+1/2,x+1/2
-y+1/2,-z+1/2,x+1/2
-z+1/2,y+1/2,-x+1/2
z+1/2,-y+1/2,-x+1/2
loop_
_atom_site_label
_atom_site_type_symbol
_atom_site_fract_x
_atom_site_fract_y
_atom_site_fract_z
_atom_site_occupancy
_atom_site_U_iso_or_equiv
Se1 Se-1 0.13125 0.13125 0.38338 1 0.0
Se3 Se-1 0 0.12228 0.5 1 0.0
Se2 Se-1 0.01701 0.25114 0.37265 1 0.0
Ga1 Ga+3 0.06662 0.1908 0.44805 1 0.0
