#------------------------------------------------------------------------------
#$Date: 2016-02-16 22:30:59 +0200 (Tue, 16 Feb 2016) $
#$Revision: 176467 $
#$URL: svn://www.crystallography.net/cod/cif/4/33/57/4335733.cif $
#------------------------------------------------------------------------------
#
# This file is available in the Crystallography Open Database (COD),
# http://www.crystallography.net/
#
# All data on this site have been placed in the public domain by the
# contributors.
#
data_4335733
loop_
_publ_author_name
'Weiwei Xie'
'Srinivasa Thimmaiah'
'Jagat Lamsal'
'Jing Liu'
'Thomas W. Heitmann'
'Dante Quirinale'
'Alan I. Goldman'
'Vitalij Pecharsky'
'Gordon J. Miller'
_publ_section_title
;
 \b-Mn-Type Co8+xZn12-x as a Defect Cubic Laves Phase: Site Preferences,
 Magnetism, and Electronic Structure
;
_journal_name_full               'Inorganic Chemistry'
_journal_page_first              9399
_journal_page_last               9408
_journal_paper_doi               10.1021/ic4009653
_journal_volume                  52
_journal_year                    2013
_chemical_formula_sum            'Co2.5 Zn2.5'
_chemical_formula_weight         310.73
_chemical_name_systematic
; 
 ? 
;
_space_group_IT_number           213
_symmetry_cell_setting           cubic
_symmetry_space_group_name_Hall  'P 4bd 2ab 3'
_symmetry_space_group_name_H-M   'P 41 3 2'
_atom_sites_solution_hydrogens   none
_atom_sites_solution_primary     direct
_atom_sites_solution_secondary   difmap
_audit_creation_method           SHELXL-97
_cell_angle_alpha                90.00
_cell_angle_beta                 90.00
_cell_angle_gamma                90.00
_cell_formula_units_Z            4
_cell_length_a                   6.3358(14)
_cell_length_b                   6.3358(14)
_cell_length_c                   6.3358(14)
_cell_measurement_reflns_used    1570
_cell_measurement_temperature    293(2)
_cell_measurement_theta_max      27.99
_cell_measurement_theta_min      4.55
_cell_volume                     254.33(10)
_computing_cell_refinement       'Bruker SAINT'
_computing_data_collection       'Bruker SMART'
_computing_data_reduction        'Bruker SAINT'
_computing_molecular_graphics    'Bruker SHELXTL'
_computing_publication_material  'Bruker SHELXTL'
_computing_structure_refinement  'SHELXL-97 (Sheldrick, 2008)'
_computing_structure_solution    'SHELXS-97 (Sheldrick, 2008)'
_diffrn_ambient_temperature      293(2)
_diffrn_measured_fraction_theta_full 1.000
_diffrn_measured_fraction_theta_max 1.000
_diffrn_measurement_device_type  'Bruker SMART APEX CCD'
_diffrn_measurement_method       '\f and \w scans'
_diffrn_radiation_monochromator  graphite
_diffrn_radiation_source         'fine-focus sealed tube'
_diffrn_radiation_type           MoK\a
_diffrn_radiation_wavelength     0.71073
_diffrn_reflns_av_R_equivalents  0.0376
_diffrn_reflns_av_sigmaI/netI    0.0174
_diffrn_reflns_limit_h_max       8
_diffrn_reflns_limit_h_min       -8
_diffrn_reflns_limit_k_max       8
_diffrn_reflns_limit_k_min       -8
_diffrn_reflns_limit_l_max       8
_diffrn_reflns_limit_l_min       -8
_diffrn_reflns_number            1570
_diffrn_reflns_theta_full        27.99
_diffrn_reflns_theta_max         27.99
_diffrn_reflns_theta_min         4.55
_exptl_absorpt_coefficient_mu    38.800
_exptl_absorpt_correction_T_max  0.7456
_exptl_absorpt_correction_T_min  0.5296
_exptl_absorpt_correction_type   multi-scan
_exptl_absorpt_process_details   Sadabs
_exptl_crystal_colour            Metallic
_exptl_crystal_density_diffrn    8.115
_exptl_crystal_density_meas      ?
_exptl_crystal_description       Irregular
_exptl_crystal_F_000             570
_exptl_crystal_size_max          0.013
_exptl_crystal_size_mid          0.010
_exptl_crystal_size_min          0.008
_refine_diff_density_max         0.320
_refine_diff_density_min         -0.353
_refine_diff_density_rms         0.110
_refine_ls_abs_structure_details 'Flack H D (1983), Acta Cryst. A39, 876-881'
_refine_ls_abs_structure_Flack   0.9(2)
_refine_ls_extinction_coef       0.0130(9)
_refine_ls_extinction_expression Fc^*^=kFc[1+0.001xFc^2^\l^3^/sin(2\q)]^-1/4^
_refine_ls_extinction_method     SHELXL
_refine_ls_goodness_of_fit_ref   1.180
_refine_ls_hydrogen_treatment    none
_refine_ls_matrix_type           full
_refine_ls_number_parameters     12
_refine_ls_number_reflns         109
_refine_ls_number_restraints     0
_refine_ls_restrained_S_all      1.180
_refine_ls_R_factor_all          0.0167
_refine_ls_R_factor_gt           0.0163
_refine_ls_shift/su_max          0.000
_refine_ls_shift/su_mean         0.000
_refine_ls_structure_factor_coef Fsqd
_refine_ls_weighting_details
'calc w=1/[\s^2^(Fo^2^)+(0.0066P)^2^+0.6046P] where P=(Fo^2^+2Fc^2^)/3'
_refine_ls_weighting_scheme      calc
_refine_ls_wR_factor_gt          0.0280
_refine_ls_wR_factor_ref         0.0280
_reflns_number_gt                107
_reflns_number_total             109
_reflns_threshold_expression     >2sigma(I)
_cod_data_source_file            ic4009653_si_002_2.cif
_cod_data_source_block           co0.5zn0.5-1
_cod_depositor_comments
;
The following automatic conversions were performed:

'_exptl_crystal_density_meas' value 'not measured' was changed to '?'
- the value is perceived as not measured.

Automatic conversion script
Id: cif_fix_values 3008 2015-01-20 13:52:24Z robertas 
;
_cod_original_formula_sum        'Co2.50 Zn2.50'
_cod_database_code               4335733
loop_
_symmetry_equiv_pos_as_xyz
'x, y, z'
'-x+1/2, -y, z+1/2'
'-x, y+1/2, -z+1/2'
'x+1/2, -y+1/2, -z'
'z, x, y'
'z+1/2, -x+1/2, -y'
'-z+1/2, -x, y+1/2'
'-z, x+1/2, -y+1/2'
'y, z, x'
'-y, z+1/2, -x+1/2'
'y+1/2, -z+1/2, -x'
'-y+1/2, -z, x+1/2'
'y+3/4, x+1/4, -z+1/4'
'-y+3/4, -x+3/4, -z+3/4'
'y+1/4, -x+1/4, z+3/4'
'-y+1/4, x+3/4, z+1/4'
'x+3/4, z+1/4, -y+1/4'
'-x+1/4, z+3/4, y+1/4'
'-x+3/4, -z+3/4, -y+3/4'
'x+1/4, -z+1/4, y+3/4'
'z+3/4, y+1/4, -x+1/4'
'z+1/4, -y+1/4, x+3/4'
'-z+1/4, y+3/4, x+1/4'
'-z+3/4, -y+3/4, -x+3/4'
loop_
_atom_site_label
_atom_site_type_symbol
_atom_site_fract_x
_atom_site_fract_y
_atom_site_fract_z
_atom_site_U_iso_or_equiv
_atom_site_adp_type
_atom_site_occupancy
_atom_site_symmetry_multiplicity
_atom_site_calc_flag
_atom_site_refinement_flags
Zn1 Zn 0.79696(7) 0.04696(7) 0.1250 0.0108(3) Uani 0.83(3) 2 d SP
Co1 Co 0.79696(7) 0.04696(7) 0.1250 0.0108(3) Uani 0.17(3) 2 d SP
Co2 Co 0.93514(8) 0.43514(8) 0.06486(8) 0.0081(3) Uani 1 3 d S
loop_
_atom_site_aniso_label
_atom_site_aniso_U_11
_atom_site_aniso_U_22
_atom_site_aniso_U_33
_atom_site_aniso_U_23
_atom_site_aniso_U_13
_atom_site_aniso_U_12
Zn1 0.0093(3) 0.0093(3) 0.0139(4) 0.00174(19) -0.00174(19) -0.0005(3)
Co1 0.0093(3) 0.0093(3) 0.0139(4) 0.00174(19) -0.00174(19) -0.0005(3)
Co2 0.0081(3) 0.0081(3) 0.0081(3) 0.00004(18) 0.00004(18) -0.00004(18)
loop_
_atom_type_symbol
_atom_type_description
_atom_type_scat_dispersion_real
_atom_type_scat_dispersion_imag
_atom_type_scat_source
Co Co 0.3494 0.9721 'International Tables Vol C Tables 4.2.6.8 and 6.1.1.4'
Zn Zn 0.2839 1.4301 'International Tables Vol C Tables 4.2.6.8 and 6.1.1.4'
loop_
_geom_angle_atom_site_label_1
_geom_angle_atom_site_label_2
_geom_angle_atom_site_label_3
_geom_angle
_geom_angle_site_symmetry_1
_geom_angle_site_symmetry_3
Co2 Zn1 Co2 107.03(3) 4_455 16_635
Co2 Zn1 Co2 100.703(14) 4_455 .
Co2 Zn1 Co2 151.31(2) 16_635 .
Co2 Zn1 Co2 151.31(2) 4_455 13_545
Co2 Zn1 Co2 100.703(14) 16_635 13_545
Co2 Zn1 Co2 53.284(15) . 13_545
Co2 Zn1 Co1 61.656(8) 4_455 11_556
Co2 Zn1 Co1 129.132(5) 16_635 11_556
Co2 Zn1 Co1 59.733(10) . 11_556
Co2 Zn1 Co1 105.605(15) 13_545 11_556
Co2 Zn1 Zn1 61.656(8) 4_455 11_556
Co2 Zn1 Zn1 129.132(5) 16_635 11_556
Co2 Zn1 Zn1 59.733(10) . 11_556
Co2 Zn1 Zn1 105.605(15) 13_545 11_556
Co1 Zn1 Zn1 0.000(3) 11_556 11_556
Co2 Zn1 Zn1 129.132(5) 4_455 5_645
Co2 Zn1 Zn1 61.656(8) 16_635 5_645
Co2 Zn1 Zn1 105.605(15) . 5_645
Co2 Zn1 Zn1 59.733(10) 13_545 5_645
Co1 Zn1 Zn1 164.891(11) 11_556 5_645
Zn1 Zn1 Zn1 164.891(11) 11_556 5_645
Co2 Zn1 Co1 129.132(5) 4_455 5_645
Co2 Zn1 Co1 61.656(8) 16_635 5_645
Co2 Zn1 Co1 105.605(15) . 5_645
Co2 Zn1 Co1 59.733(10) 13_545 5_645
Co1 Zn1 Co1 164.891(11) 11_556 5_645
Zn1 Zn1 Co1 164.891(11) 11_556 5_645
Zn1 Zn1 Co1 0.000(19) 5_645 5_645
Co2 Zn1 Zn1 120.078(7) 4_455 8_645
Co2 Zn1 Zn1 98.973(15) 16_635 8_645
Co2 Zn1 Zn1 59.732(10) . 8_645
Co2 Zn1 Zn1 61.064(14) 13_545 8_645
Co1 Zn1 Zn1 60.0 11_556 8_645
Zn1 Zn1 Zn1 60.0 11_556 8_645
Zn1 Zn1 Zn1 110.775(7) 5_645 8_645
Co1 Zn1 Zn1 110.775(7) 5_645 8_645
Co2 Zn1 Co1 120.078(7) 4_455 8_645
Co2 Zn1 Co1 98.973(15) 16_635 8_645
Co2 Zn1 Co1 59.732(10) . 8_645
Co2 Zn1 Co1 61.064(14) 13_545 8_645
Co1 Zn1 Co1 60.0 11_556 8_645
Zn1 Zn1 Co1 60.0 11_556 8_645
Zn1 Zn1 Co1 110.775(7) 5_645 8_645
Co1 Zn1 Co1 110.775(7) 5_645 8_645
Zn1 Zn1 Co1 0.000(12) 8_645 8_645
Co2 Zn1 Zn1 98.973(15) 4_455 9_654
Co2 Zn1 Zn1 120.078(7) 16_635 9_654
Co2 Zn1 Zn1 61.065(14) . 9_654
Co2 Zn1 Zn1 59.733(10) 13_545 9_654
Co1 Zn1 Zn1 110.775(7) 11_556 9_654
Zn1 Zn1 Zn1 110.775(7) 11_556 9_654
Zn1 Zn1 Zn1 60.0 5_645 9_654
Co1 Zn1 Zn1 60.0 5_645 9_654
Zn1 Zn1 Zn1 112.908(4) 8_645 9_654
Co1 Zn1 Zn1 112.908(4) 8_645 9_654
Co2 Zn1 Co1 98.973(15) 4_455 9_654
Co2 Zn1 Co1 120.078(7) 16_635 9_654
Co2 Zn1 Co1 61.065(14) . 9_654
Co2 Zn1 Co1 59.733(10) 13_545 9_654
Co1 Zn1 Co1 110.775(7) 11_556 9_654
Zn1 Zn1 Co1 110.775(7) 11_556 9_654
Zn1 Zn1 Co1 60.0 5_645 9_654
Co1 Zn1 Co1 60.0 5_645 9_654
Zn1 Zn1 Co1 112.908(4) 8_645 9_654
Co1 Zn1 Co1 112.908(4) 8_645 9_654
Zn1 Zn1 Co1 0.000(15) 9_654 9_654
Co2 Co2 Co2 116.624(8) 15_564 16_645
Co2 Co2 Co2 116.624(8) 15_564 13_545
Co2 Co2 Co2 116.624(8) 16_645 13_545
Co2 Co2 Co1 124.50(3) 15_564 5_655
Co2 Co2 Co1 65.581(12) 16_645 5_655
Co2 Co2 Co1 107.190(1) 13_545 5_655
Co2 Co2 Zn1 124.50(3) 15_564 5_655
Co2 Co2 Zn1 65.581(12) 16_645 5_655
Co2 Co2 Zn1 107.190(1) 13_545 5_655
Co1 Co2 Zn1 0.000(10) 5_655 5_655
Co2 Co2 Co1 65.581(12) 15_564 10_655
Co2 Co2 Co1 107.190(1) 16_645 10_655
Co2 Co2 Co1 124.50(3) 13_545 10_655
Co1 Co2 Co1 61.99(3) 5_655 10_655
Zn1 Co2 Co1 61.99(3) 5_655 10_655
Co2 Co2 Zn1 107.190(1) 15_564 4
Co2 Co2 Zn1 124.50(3) 16_645 4
Co2 Co2 Zn1 65.581(12) 13_545 4
Co1 Co2 Zn1 61.99(3) 5_655 4
Zn1 Co2 Zn1 61.99(3) 5_655 4
Co1 Co2 Zn1 61.99(3) 10_655 4
Co2 Co2 Co1 107.190(1) 15_564 4
Co2 Co2 Co1 124.50(3) 16_645 4
Co2 Co2 Co1 65.581(12) 13_545 4
Co1 Co2 Co1 61.99(3) 5_655 4
Zn1 Co2 Co1 61.99(3) 5_655 4
Co1 Co2 Co1 61.99(3) 10_655 4
Zn1 Co2 Co1 0.0 4 4
Co2 Co2 Zn1 65.581(12) 15_564 10_655
Co2 Co2 Zn1 107.190(1) 16_645 10_655
Co2 Co2 Zn1 124.50(3) 13_545 10_655
Co1 Co2 Zn1 61.99(3) 5_655 10_655
Zn1 Co2 Zn1 61.99(3) 5_655 10_655
Co1 Co2 Zn1 0.00(2) 10_655 10_655
Zn1 Co2 Zn1 61.99(3) 4 10_655
Co1 Co2 Zn1 61.99(3) 4 10_655
Co2 Co2 Co1 63.358(7) 15_564 11_556
Co2 Co2 Co1 64.80(2) 16_645 11_556
Co2 Co2 Co1 114.87(2) 13_545 11_556
Co1 Co2 Co1 125.102(6) 5_655 11_556
Zn1 Co2 Co1 125.102(6) 5_655 11_556
Co1 Co2 Co1 113.666(15) 10_655 11_556
Zn1 Co2 Co1 170.078(8) 4 11_556
Co1 Co2 Co1 170.078(8) 4 11_556
Zn1 Co2 Co1 113.666(15) 10_655 11_556
Co2 Co2 Zn1 63.358(7) 15_564 11_556
Co2 Co2 Zn1 64.80(2) 16_645 11_556
Co2 Co2 Zn1 114.87(2) 13_545 11_556
Co1 Co2 Zn1 125.102(6) 5_655 11_556
Zn1 Co2 Zn1 125.102(6) 5_655 11_556
Co1 Co2 Zn1 113.666(15) 10_655 11_556
Zn1 Co2 Zn1 170.078(8) 4 11_556
Co1 Co2 Zn1 170.078(8) 4 11_556
Zn1 Co2 Zn1 113.666(15) 10_655 11_556
Co1 Co2 Zn1 0.000(7) 11_556 11_556
Co2 Co2 Co1 114.87(2) 15_564 8_645
Co2 Co2 Co1 63.358(7) 16_645 8_645
Co2 Co2 Co1 64.80(2) 13_545 8_645
Co1 Co2 Co1 113.666(15) 5_655 8_645
Zn1 Co2 Co1 113.666(15) 5_655 8_645
Co1 Co2 Co1 170.078(8) 10_655 8_645
Zn1 Co2 Co1 125.102(5) 4 8_645
Co1 Co2 Co1 125.102(5) 4 8_645
Zn1 Co2 Co1 170.078(8) 10_655 8_645
Co1 Co2 Co1 60.534(19) 11_556 8_645
Zn1 Co2 Co1 60.534(19) 11_556 8_645
loop_
_geom_bond_atom_site_label_1
_geom_bond_atom_site_label_2
_geom_bond_distance
_geom_bond_site_symmetry_2
Zn1 Co2 2.5913(10) 4_455
Zn1 Co2 2.5913(10) 16_635
Zn1 Co2 2.6383(11) .
Zn1 Co2 2.6383(11) 13_545
Zn1 Co1 2.6595(7) 11_556
Zn1 Zn1 2.6595(7) 11_556
Zn1 Zn1 2.6595(7) 5_645
Zn1 Co1 2.6595(7) 5_645
Zn1 Zn1 2.6596(7) 8_645
Zn1 Co1 2.6596(7) 8_645
Zn1 Zn1 2.6596(7) 9_654
Zn1 Co1 2.6596(7) 9_654
Co2 Co2 2.3661(6) 15_564
Co2 Co2 2.3661(6) 16_645
Co2 Co2 2.3661(6) 13_545
Co2 Co1 2.5913(10) 5_655
Co2 Zn1 2.5913(10) 5_655
Co2 Co1 2.5913(10) 10_655
Co2 Zn1 2.5913(10) 4
Co2 Co1 2.5913(10) 4
Co2 Zn1 2.5913(10) 10_655
Co2 Co1 2.6383(11) 11_556
Co2 Zn1 2.6383(11) 11_556
Co2 Co1 2.6383(11) 8_645
