#------------------------------------------------------------------------------
#$Date: 2016-02-13 21:28:24 +0200 (Sat, 13 Feb 2016) $
#$Revision: 176429 $
#$URL: svn://www.crystallography.net/cod/cif/1/52/99/1529990.cif $
#------------------------------------------------------------------------------
#
# This file is available in the Crystallography Open Database (COD),
# http://www.crystallography.net/
#
# All data on this site have been placed in the public domain by the
# contributors.
#
data_1529990
loop_
_publ_author_name
'Gladyshevskii, E.I.'
_publ_section_title
;
 The crystal structure of Ba Si2 and Ce Ge2
;
_journal_name_full               'Dopovidi Akademii Nauk Ukrains'koi RSR'
_journal_page_first              294
_journal_page_last               297
_journal_volume                  1959
_journal_year                    1959
_chemical_formula_sum            'Ba Si2'
_chemical_name_systematic        'Ba Si2'
_space_group_IT_number           191
_symmetry_space_group_name_Hall  '-P 6 2'
_symmetry_space_group_name_H-M   'P 6/m m m'
_cell_angle_alpha                90
_cell_angle_beta                 90
_cell_angle_gamma                120
_cell_formula_units_Z            1
_cell_length_a                   4.39
_cell_length_b                   4.39
_cell_length_c                   4.83
_cell_volume                     80.613
_citation_journal_id_ASTM        DUKRA4
_cod_data_source_file            Gladyshevskii_DUKRA4_1959_1521.cif
_cod_data_source_block           Ba1Si2
_cod_original_cell_volume        80.61331
_cod_original_formula_sum        'Ba1 Si2'
_cod_database_code               1529990
loop_
_symmetry_equiv_pos_as_xyz
x,y,z
x-y,x,z
-y,x-y,z
-x,-y,z
-x+y,-x,z
y,-x+y,z
-y,-x,-z
x-y,-y,-z
x,x-y,-z
y,x,-z
-x+y,y,-z
-x,-x+y,-z
-x,-y,-z
-x+y,-x,-z
y,-x+y,-z
x,y,-z
x-y,x,-z
-y,x-y,-z
y,x,z
-x+y,y,z
-x,-x+y,z
-y,-x,z
x-y,-y,z
x,x-y,z
loop_
_atom_site_label
_atom_site_type_symbol
_atom_site_fract_x
_atom_site_fract_y
_atom_site_fract_z
_atom_site_occupancy
_atom_site_U_iso_or_equiv
Si1 Si 0.3333 0.6667 0.5 1 0.0
Ba1 Ba 0 0 0 1 0.0
