#------------------------------------------------------------------------------
#$Date: 2016-02-13 21:28:24 +0200 (Sat, 13 Feb 2016) $
#$Revision: 176429 $
#$URL: svn://www.crystallography.net/cod/cif/1/52/99/1529988.cif $
#------------------------------------------------------------------------------
#
# This file is available in the Crystallography Open Database (COD),
# http://www.crystallography.net/
#
# All data on this site have been placed in the public domain by the
# contributors.
#
data_1529988
loop_
_publ_author_name
'Gladyshevskii, E.I.'
_publ_section_title
;
 The crystal structures of silicon-rich silicides of rare-earth elements
 of the yttrium group
;
_journal_name_full
;
Dopovidi Akademii Nauk Ukrains'koi RSR, Seriya A: Fiziko-Matematichni Ta 
Tekhnichni Nauki
;
_journal_page_first              886
_journal_page_last               888
_journal_volume                  25
_journal_year                    1963
_chemical_formula_sum            'Si2 Tb'
_chemical_name_systematic        'Tb Si2'
_space_group_IT_number           191
_symmetry_space_group_name_Hall  '-P 6 2'
_symmetry_space_group_name_H-M   'P 6/m m m'
_cell_angle_alpha                90
_cell_angle_beta                 90
_cell_angle_gamma                120
_cell_formula_units_Z            1
_cell_length_a                   3.847
_cell_length_b                   3.847
_cell_length_c                   4.146
_cell_volume                     53.138
_citation_journal_id_ASTM        DNUNDU
_cod_data_source_file            Gladyshevskii_DNUNDU_1963_1545.cif
_cod_data_source_block           Si2Tb1
_cod_original_cell_volume        53.13789
_cod_original_formula_sum        'Si2 Tb1'
_cod_database_code               1529988
loop_
_symmetry_equiv_pos_as_xyz
x,y,z
x-y,x,z
-y,x-y,z
-x,-y,z
-x+y,-x,z
y,-x+y,z
-y,-x,-z
x-y,-y,-z
x,x-y,-z
y,x,-z
-x+y,y,-z
-x,-x+y,-z
-x,-y,-z
-x+y,-x,-z
y,-x+y,-z
x,y,-z
x-y,x,-z
-y,x-y,-z
y,x,z
-x+y,y,z
-x,-x+y,z
-y,-x,z
x-y,-y,z
x,x-y,z
loop_
_atom_site_label
_atom_site_type_symbol
_atom_site_fract_x
_atom_site_fract_y
_atom_site_fract_z
_atom_site_occupancy
_atom_site_U_iso_or_equiv
Si1 Si 0.3333 0.6667 0.5 1 0.0
Tb1 Tb 0 0 0 1 0.0
