#------------------------------------------------------------------------------
#$Date: 2017-10-14 22:27:35 +0300 (Sat, 14 Oct 2017) $
#$Revision: 202017 $
#$URL: file:///home/coder/svn-repositories/cod/cif/7/20/49/7204904.cif $
#------------------------------------------------------------------------------
#
# This file is available in the Crystallography Open Database (COD),
# http://www.crystallography.net/
#
# All data on this site have been placed in the public domain by the
# contributors.
#
data_7204904
loop_
_publ_author_name
'Laura Le\'on-Reina'
'Enrique R. Losilla'
'Mar\'ia Mart\'inez-Lara'
'Sebasti\'an Bruque'
'Miguel A. G. Aranda'
_publ_section_title
;
 Interstitial oxygen conduction in lanthanum oxy-apatite electrolytes
;
_journal_issue                   7
_journal_name_full               'J. Mater. Chem.'
_journal_page_first              1142
_journal_page_last               1149
_journal_paper_doi               10.1039/b315257j
_journal_volume                  14
_journal_year                    2004
_chemical_formula_sum            Fe
_chemical_formula_weight         55.85
_chemical_name_systematic        ' ?'
_space_group_IT_number           229
_symmetry_cell_setting           cubic
_symmetry_space_group_name_Hall  '-I 4 2 3'
_symmetry_space_group_name_H-M   'I m -3 m'
_cell_angle_alpha                90.0
_cell_angle_beta                 90.0
_cell_angle_gamma                90.0
_cell_formula_units_Z            2
_cell_length_a                   2.886
_cell_length_b                   2.886
_cell_length_c                   2.886
_cell_volume                     24.037
_exptl_absorpt_correction_T_max  1.00000
_exptl_absorpt_correction_T_min  1.00000
_pd_block_id
2003-09-18T17:07|La960Ge_773k_phase3|La960Ge_773K||
_pd_calc_method                  'Rietveld Refinement'
_pd_phase_name                   'from C:/users/leon/fases/fe-alfa.cif'
_pd_proc_info_datetime           2003-09-18T17:07:11
_cod_data_source_file            b315257j.txt
_cod_data_source_block           La960Ge_773k_phase_3
_cod_depositor_comments
;
The following automatic conversions were performed:
'_geom_angle_publ_flag' value 'N' changed to 'n' according to
'/home/saulius/struct/CIF-dictionaries/cif_core.dic' dictionary named
'cif_core.dic' version 2.4.1 from 2010-06-29 (28
times).

'_geom_bond_publ_flag' value 'N' changed to 'n' according to
'/home/saulius/struct/CIF-dictionaries/cif_core.dic' dictionary named
'cif_core.dic' version 2.4.1 from 2010-06-29 (14 times).

Automatic conversion script
Id: cif_fix_enum 1527 2010-12-29 10:47:43Z saulius 
;
_cod_original_cell_volume        24.03748
_cod_original_sg_symbol_H-M      'I m 3 m'
_cod_database_code               7204904
_gsas_exptl_extinct_corr_t_min   1.00000
_gsas_exptl_extinct_corr_t_max   1.00000
loop_
_symmetry_equiv_pos_site_id
_symmetry_equiv_pos_as_xyz
1 +x,+y,+z
2 +z,+x,+y
3 +y,+z,+x
4 +x,+y,-z
5 -z,+x,+y
6 +y,-z,+x
7 -z,+x,-y
8 -y,-z,+x
9 +y,-z,-x
10 -x,+y,-z
11 -z,-x,+y
12 +x,-y,-z
13 +y,+x,+z
14 +z,+y,+x
15 +x,+z,+y
16 +y,+x,-z
17 -z,+y,+x
18 +x,-z,+y
19 -z,+y,-x
20 -x,-z,+y
21 +x,-z,-y
22 -y,+x,-z
23 -z,-y,+x
24 +y,-x,-z
-1 -x,-y,-z
-2 -z,-x,-y
-3 -y,-z,-x
-4 -x,-y,+z
-5 +z,-x,-y
-6 -y,+z,-x
-7 +z,-x,+y
-8 +y,+z,-x
-9 -y,+z,+x
-10 +x,-y,+z
-11 +z,+x,-y
-12 -x,+y,+z
-13 -y,-x,-z
-14 -z,-y,-x
-15 -x,-z,-y
-16 -y,-x,+z
-17 +z,-y,-x
-18 -x,+z,-y
-19 +z,-y,+x
-20 +x,+z,-y
-21 -x,+z,+y
-22 +y,-x,+z
-23 +z,+y,-x
-24 -y,+x,+z
101 +x+1/2,+y+1/2,+z+1/2
102 +z+1/2,+x+1/2,+y+1/2
103 +y+1/2,+z+1/2,+x+1/2
104 +x+1/2,+y+1/2,-z+1/2
105 -z+1/2,+x+1/2,+y+1/2
106 +y+1/2,-z+1/2,+x+1/2
107 -z+1/2,+x+1/2,-y+1/2
108 -y+1/2,-z+1/2,+x+1/2
109 +y+1/2,-z+1/2,-x+1/2
110 -x+1/2,+y+1/2,-z+1/2
111 -z+1/2,-x+1/2,+y+1/2
112 +x+1/2,-y+1/2,-z+1/2
113 +y+1/2,+x+1/2,+z+1/2
114 +z+1/2,+y+1/2,+x+1/2
115 +x+1/2,+z+1/2,+y+1/2
116 +y+1/2,+x+1/2,-z+1/2
117 -z+1/2,+y+1/2,+x+1/2
118 +x+1/2,-z+1/2,+y+1/2
119 -z+1/2,+y+1/2,-x+1/2
120 -x+1/2,-z+1/2,+y+1/2
121 +x+1/2,-z+1/2,-y+1/2
122 -y+1/2,+x+1/2,-z+1/2
123 -z+1/2,-y+1/2,+x+1/2
124 +y+1/2,-x+1/2,-z+1/2
-101 -x+1/2,-y+1/2,-z+1/2
-102 -z+1/2,-x+1/2,-y+1/2
-103 -y+1/2,-z+1/2,-x+1/2
-104 -x+1/2,-y+1/2,+z+1/2
-105 +z+1/2,-x+1/2,-y+1/2
-106 -y+1/2,+z+1/2,-x+1/2
-107 +z+1/2,-x+1/2,+y+1/2
-108 +y+1/2,+z+1/2,-x+1/2
-109 -y+1/2,+z+1/2,+x+1/2
-110 +x+1/2,-y+1/2,+z+1/2
-111 +z+1/2,+x+1/2,-y+1/2
-112 -x+1/2,+y+1/2,+z+1/2
-113 -y+1/2,-x+1/2,-z+1/2
-114 -z+1/2,-y+1/2,-x+1/2
-115 -x+1/2,-z+1/2,-y+1/2
-116 -y+1/2,-x+1/2,+z+1/2
-117 +z+1/2,-y+1/2,-x+1/2
-118 -x+1/2,+z+1/2,-y+1/2
-119 +z+1/2,-y+1/2,+x+1/2
-120 +x+1/2,+z+1/2,-y+1/2
-121 -x+1/2,+z+1/2,+y+1/2
-122 +y+1/2,-x+1/2,+z+1/2
-123 +z+1/2,+y+1/2,-x+1/2
-124 -y+1/2,+x+1/2,+z+1/2
loop_
_atom_site_type_symbol
_atom_site_label
_atom_site_fract_x
_atom_site_fract_y
_atom_site_fract_z
_atom_site_occupancy
_atom_site_thermal_displace_type
_atom_site_U_iso_or_equiv
_atom_site_symmetry_multiplicity
FE Fe1 0.0 0.0 0.0 1.0 Uiso 0.0025 2
loop_
_atom_type_symbol
_atom_type_number_in_cell
FE 2.0
loop_
_geom_angle_atom_site_label_1
_geom_angle_atom_site_label_2
_geom_angle_atom_site_label_3
_geom_angle
_geom_angle_site_symmetry_1
_geom_angle_site_symmetry_2
_geom_angle_site_symmetry_3
_geom_angle_publ_flag
Fe1 Fe1 Fe1 70.5288 101_444 . 101_445 n
Fe1 Fe1 Fe1 70.5288 101_444 . 101_454 n
Fe1 Fe1 Fe1 109.4712 101_444 . 101_455 n
Fe1 Fe1 Fe1 70.5288 101_444 . 101_544 n
Fe1 Fe1 Fe1 109.4712 101_444 . 101_545 n
Fe1 Fe1 Fe1 109.4712 101_444 . 101_554 n
Fe1 Fe1 Fe1 179.972 101_444 . 101_555 n
Fe1 Fe1 Fe1 109.4712 101_445 . 101_454 n
Fe1 Fe1 Fe1 70.5288 101_445 . 101_455 n
Fe1 Fe1 Fe1 109.4712 101_445 . 101_544 n
Fe1 Fe1 Fe1 70.5288 101_445 . 101_545 n
Fe1 Fe1 Fe1 180.0 101_445 . 101_554 n
Fe1 Fe1 Fe1 109.4712 101_445 . 101_555 n
Fe1 Fe1 Fe1 70.5288 101_454 . 101_455 n
Fe1 Fe1 Fe1 109.4712 101_454 . 101_544 n
Fe1 Fe1 Fe1 180.0 101_454 . 101_545 n
Fe1 Fe1 Fe1 70.5288 101_454 . 101_554 n
Fe1 Fe1 Fe1 109.4712 101_454 . 101_555 n
Fe1 Fe1 Fe1 180.0 101_455 . 101_544 n
Fe1 Fe1 Fe1 109.4712 101_455 . 101_545 n
Fe1 Fe1 Fe1 109.4712 101_455 . 101_554 n
Fe1 Fe1 Fe1 70.5288 101_455 . 101_555 n
Fe1 Fe1 Fe1 70.5288 101_544 . 101_545 n
Fe1 Fe1 Fe1 70.5288 101_544 . 101_554 n
Fe1 Fe1 Fe1 109.4712 101_544 . 101_555 n
Fe1 Fe1 Fe1 109.4712 101_545 . 101_554 n
Fe1 Fe1 Fe1 70.5288 101_545 . 101_555 n
Fe1 Fe1 Fe1 70.5288 101_554 . 101_555 n
loop_
_geom_bond_atom_site_label_1
_geom_bond_atom_site_label_2
_geom_bond_distance
_geom_bond_site_symmetry_1
_geom_bond_site_symmetry_2
_geom_bond_publ_flag
Fe1 Fe1 2.886 . 1_455 n
Fe1 Fe1 2.886 . 1_545 n
Fe1 Fe1 2.886 . 1_554 n
Fe1 Fe1 2.886 . 1_556 n
Fe1 Fe1 2.886 . 1_565 n
Fe1 Fe1 2.886 . 1_655 n
Fe1 Fe1 2.49935 . 101_444 n
Fe1 Fe1 2.49935 . 101_445 n
Fe1 Fe1 2.49935 . 101_454 n
Fe1 Fe1 2.49935 . 101_455 n
Fe1 Fe1 2.49935 . 101_544 n
Fe1 Fe1 2.49935 . 101_545 n
Fe1 Fe1 2.49935 . 101_554 n
Fe1 Fe1 2.49935 . 101_555 n
loop_
_cod_related_entry_id
_cod_related_entry_database
_cod_related_entry_code
1 ChemSpider 22368
