#------------------------------------------------------------------------------
#$Date: 2015-07-14 01:21:41 +0300 (Tue, 14 Jul 2015) $
#$Revision: 151249 $
#$URL: svn://www.crystallography.net/cod/cif/4/00/24/4002403.cif $
#------------------------------------------------------------------------------
#
# This file is available in the Crystallography Open Database (COD),
# http://www.crystallography.net/
#
# All data on this site have been placed in the public domain by the
# contributors.
#
data_4002403
loop_
_publ_author_name
'Leon-Escamilla, E.A.'
'Corbett, J.D.'
_publ_section_title
;
 Hydrogen in polar intermetallics. Binary pnictides of divalent metals
 with Mn5 Si3-type structures and their isotypic ternary hydride solutions
;
_journal_name_full               'Chemistry of Materials (1,1989-)'
_journal_page_first              4782
_journal_page_last               4792
_journal_volume                  18
_journal_year                    2006
_chemical_formula_sum            'Ca5 Sb3'
_chemical_name_systematic        'Ca5 Sb3'
_space_group_IT_number           193
_symmetry_space_group_name_Hall  '-P 6c 2'
_symmetry_space_group_name_H-M   'P 63/m c m'
_cell_angle_alpha                90
_cell_angle_beta                 90
_cell_angle_gamma                120
_cell_formula_units_Z            2
_cell_length_a                   9.0312
_cell_length_b                   9.0312
_cell_length_c                   7.0254
_cell_volume                     496.241
_citation_journal_id_ASTM        CMATEX
_cod_data_source_file            Leon-Escamilla_CMATEX_2006_1306.cif
_cod_data_source_block           Ca5Sb3
_cod_database_code               4002403
loop_
_symmetry_equiv_pos_as_xyz
x,y,z
x-y,x,z+1/2
-y,x-y,z
-x,-y,z+1/2
-x+y,-x,z
y,-x+y,z+1/2
-y,-x,-z
x-y,-y,-z+1/2
x,x-y,-z
y,x,-z+1/2
-x+y,y,-z
-x,-x+y,-z+1/2
-x,-y,-z
-x+y,-x,-z-1/2
y,-x+y,-z
x,y,-z-1/2
x-y,x,-z
-y,x-y,-z-1/2
y,x,z
-x+y,y,z-1/2
-x,-x+y,z
-y,-x,z-1/2
x-y,-y,z
x,x-y,z-1/2
loop_
_atom_site_label
_atom_site_type_symbol
_atom_site_fract_x
_atom_site_fract_y
_atom_site_fract_z
_atom_site_occupancy
_atom_site_U_iso_or_equiv
Ca2 Ca 0.2525 0 0.25 1 0.0
Sb1 Sb 0.61089 0 0.25 1 0.0
Ca1 Ca 0.3333 0.6667 0 1 0.0
