#------------------------------------------------------------------------------
#$Date: 2015-09-19 00:51:19 +0300 (Sat, 19 Sep 2015) $
#$Revision: 158099 $
#$URL: svn://www.crystallography.net/cod/cif/1/53/23/1532393.cif $
#------------------------------------------------------------------------------
#
# This file is available in the Crystallography Open Database (COD),
# http://www.crystallography.net/
#
# All data on this site have been placed in the public domain by the
# contributors.
#
data_1532393
loop_
_publ_author_name
'Yang, H.F.'
'Rao, G.-H.'
'Ouyang, Z.W.'
'Chu, W.G.'
'Liu, G.Y.'
'Liang, J.K.'
_publ_section_title
;
 The crystal structure of La5 Si4 and Nd5 Si4
;
_journal_name_full               'Journal of Alloys Compd.'
_journal_page_first              131
_journal_page_last               134
_journal_volume                  334
_journal_year                    2002
_chemical_formula_sum            'Nd5 Si4'
_chemical_name_systematic        'Nd5 Si4'
_space_group_IT_number           92
_symmetry_space_group_name_Hall  'P 4abw 2nw'
_symmetry_space_group_name_H-M   'P 41 21 2'
_cell_angle_alpha                90
_cell_angle_beta                 90
_cell_angle_gamma                90
_cell_formula_units_Z            4
_cell_length_a                   7.8694
_cell_length_b                   7.8694
_cell_length_c                   14.8077
_cell_volume                     917.003
_citation_journal_id_ASTM        JALCEU
_cod_data_source_file            Yang_JALCEU_2002_400.cif
_cod_data_source_block           Nd5Si4
_cod_original_cell_volume        917.0032
_cod_database_code               1532393
loop_
_symmetry_equiv_pos_as_xyz
x,y,z
-y+1/2,x+1/2,z+1/4
-x,-y,z+1/2
y+1/2,-x+1/2,z+3/4
x+1/2,-y+1/2,-z+3/4
y,x,-z
-x+1/2,y+1/2,-z+1/4
-y,-x,-z+1/2
loop_
_atom_site_label
_atom_site_type_symbol
_atom_site_fract_x
_atom_site_fract_y
_atom_site_fract_z
_atom_site_occupancy
_atom_site_U_iso_or_equiv
Si1 Si 0.1871 0.1638 0.6945 1 0.0
Si2 Si 0.2864 0.9349 0.0627 1 0.0
Nd1 Nd 0.3129 0.3129 0 1 0.0
Nd2 Nd 0.3696 0.0114 0.4542 1 0.0
Nd3 Nd 0.13 -0.0155 0.8742 1 0.0
