#------------------------------------------------------------------------------
#$Date: 2016-03-21 17:15:20 +0200 (Mon, 21 Mar 2016) $
#$Revision: 178775 $
#$URL: svn://www.crystallography.net/cod/cif/4/10/29/4102912.cif $
#------------------------------------------------------------------------------
#
# This file is available in the Crystallography Open Database (COD),
# http://www.crystallography.net/
#
# All data on this site have been placed in the public domain by the
# contributors.
#
data_4102912
loop_
_publ_author_name
'Pan\<ce Naumov'
'Petre Makreski'
'Gjorgji Petru\<sevski'
'Tom\<ce Run\<cevski'
'Gligor Jovanovski'
_publ_section_title
;
 Visualization of a Discrete Solid-State Process with Steady-State X-ray
 Diffraction: Observation of Hopping of Sulfur Atoms in Single Crystals of
 Realgar
;
_journal_name_full               'Journal of the American Chemical Society'
_journal_page_first              11398
_journal_page_last               11401
_journal_paper_doi               10.1021/ja1030672
_journal_volume                  132
_journal_year                    2010
_chemical_formula_sum            'As4 S4'
_chemical_formula_weight         427.92
_chemical_name_systematic
;
 ?
;
_space_group_IT_number           14
_symmetry_cell_setting           monoclinic
_symmetry_space_group_name_Hall  '-P 2yn'
_symmetry_space_group_name_H-M   'P 1 21/n 1'
_atom_sites_solution_hydrogens   geom
_atom_sites_solution_primary     direct
_atom_sites_solution_secondary   difmap
_audit_creation_method           SHELXL-97
_cell_angle_alpha                90.00
_cell_angle_beta                 106.4710(10)
_cell_angle_gamma                90.00
_cell_formula_units_Z            4
_cell_length_a                   9.3264(2)
_cell_length_b                   13.5590(3)
_cell_length_c                   6.58760(10)
_cell_measurement_temperature    293(2)
_cell_volume                     798.86(3)
_computing_structure_refinement  'SHELXL-97 (Sheldrick, 1997)'
_diffrn_ambient_temperature      293(2)
_diffrn_measured_fraction_theta_full 0.747
_diffrn_measured_fraction_theta_max 0.747
_diffrn_radiation_monochromator  graphite
_diffrn_radiation_source         'fine-focus sealed tube'
_diffrn_radiation_type           MoK\a
_diffrn_radiation_wavelength     0.71073
_diffrn_reflns_av_R_equivalents  0.0433
_diffrn_reflns_av_sigmaI/netI    0.0501
_diffrn_reflns_limit_h_max       19
_diffrn_reflns_limit_h_min       -18
_diffrn_reflns_limit_k_max       26
_diffrn_reflns_limit_k_min       -26
_diffrn_reflns_limit_l_max       10
_diffrn_reflns_limit_l_min       -12
_diffrn_reflns_number            14893
_diffrn_reflns_theta_full        49.91
_diffrn_reflns_theta_max         49.91
_diffrn_reflns_theta_min         8.03
_exptl_absorpt_coefficient_mu    17.529
_exptl_crystal_density_diffrn    3.558
_exptl_crystal_density_method    'not measured'
_exptl_crystal_F_000             784
_refine_diff_density_max         2.406
_refine_diff_density_min         -2.513
_refine_diff_density_rms         0.271
_refine_ls_extinction_method     none
_refine_ls_goodness_of_fit_ref   1.014
_refine_ls_hydrogen_treatment    mixed
_refine_ls_matrix_type           full
_refine_ls_number_parameters     73
_refine_ls_number_reflns         6232
_refine_ls_number_restraints     0
_refine_ls_restrained_S_all      1.014
_refine_ls_R_factor_all          0.0932
_refine_ls_R_factor_gt           0.0591
_refine_ls_shift/su_max          0.000
_refine_ls_shift/su_mean         0.000
_refine_ls_structure_factor_coef Fsqd
_refine_ls_weighting_details
'calc w=1/[\s^2^(Fo^2^)+(0.0928P)^2^+0.9047P] where P=(Fo^2^+2Fc^2^)/3'
_refine_ls_weighting_scheme      calc
_refine_ls_wR_factor_gt          0.1508
_refine_ls_wR_factor_ref         0.1718
_reflns_number_gt                4040
_reflns_number_total             6232
_reflns_threshold_expression     >2sigma(I)
_cod_data_source_file            ja1030672_re4-15.cif
_cod_data_source_block           re4-15
_cod_database_code               4102912
loop_
_symmetry_equiv_pos_as_xyz
'x, y, z'
'-x+1/2, y+1/2, -z+1/2'
'-x, -y, -z'
'x-1/2, -y-1/2, z-1/2'
loop_
_atom_site_label
_atom_site_type_symbol
_atom_site_fract_x
_atom_site_fract_y
_atom_site_fract_z
_atom_site_U_iso_or_equiv
_atom_site_adp_type
_atom_site_occupancy
_atom_site_symmetry_multiplicity
_atom_site_calc_flag
As3 As 0.17912(4) 0.62651(3) 0.32237(6) 0.02724(9) Uani 1 1 d
As1 As 0.37858(4) 0.47933(3) 0.73647(6) 0.02766(9) Uani 1 1 d
As2 As 0.07619(4) 0.63904(3) 0.64369(7) 0.02725(9) Uani 1 1 d
As4 As 0.46039(4) 0.66094(3) 0.78544(7) 0.02927(9) Uani 1 1 d
S2 S 0.28564(10) 0.47671(8) 0.38439(16) 0.02909(16) Uani 1 1 d
S1 S 0.15521(11) 0.49414(8) 0.79904(17) 0.02993(17) Uani 1 1 d
S3 S 0.26113(12) 0.72599(8) 0.86039(17) 0.03163(18) Uani 1 1 d
S4 S 0.39312(11) 0.70985(8) 0.44811(17) 0.03236(18) Uani 1 1 d
loop_
_atom_site_aniso_label
_atom_site_aniso_U_11
_atom_site_aniso_U_22
_atom_site_aniso_U_33
_atom_site_aniso_U_23
_atom_site_aniso_U_13
_atom_site_aniso_U_12
As3 0.02132(13) 0.03177(19) 0.02562(18) 0.00353(11) 0.00177(11) 0.00126(11)
As1 0.02387(14) 0.02553(17) 0.03044(19) 0.00331(10) 0.00260(12) 0.00434(11)
As2 0.01917(12) 0.02690(18) 0.0354(2) -0.00167(11) 0.00725(12) 0.00120(11)
As4 0.02030(13) 0.03093(19) 0.0326(2) -0.00226(12) 0.00106(12) -0.00557(12)
S2 0.0247(3) 0.0301(4) 0.0310(4) -0.0049(3) 0.0055(3) 0.0018(3)
S1 0.0283(3) 0.0278(4) 0.0343(5) 0.0026(3) 0.0100(3) -0.0042(3)
S3 0.0315(4) 0.0272(4) 0.0358(5) -0.0079(3) 0.0091(3) -0.0040(3)
S4 0.0268(3) 0.0340(5) 0.0365(5) 0.0054(3) 0.0094(3) -0.0065(3)
loop_
_atom_type_symbol
_atom_type_description
_atom_type_scat_dispersion_real
_atom_type_scat_dispersion_imag
_atom_type_scat_source
S S 0.1246 0.1234 'International Tables Vol C Tables 4.2.6.8 and 6.1.1.4'
As As 0.0499 2.0058 'International Tables Vol C Tables 4.2.6.8 and 6.1.1.4'
loop_
_geom_angle_atom_site_label_1
_geom_angle_atom_site_label_2
_geom_angle_atom_site_label_3
_geom_angle
S4 As3 S2 95.00(4)
S4 As3 As2 99.45(3)
S2 As3 As2 99.17(3)
S2 As1 S1 94.87(4)
S2 As1 As4 99.18(3)
S1 As1 As4 98.58(3)
S3 As2 S1 94.38(4)
S3 As2 As3 99.22(3)
S1 As2 As3 99.63(3)
S4 As4 S3 94.94(4)
S4 As4 As1 99.79(3)
S3 As4 As1 99.78(3)
As1 S2 As3 101.29(4)
As2 S1 As1 101.35(4)
As4 S3 As2 100.95(4)
As4 S4 As3 100.83(4)
loop_
_geom_bond_atom_site_label_1
_geom_bond_atom_site_label_2
_geom_bond_distance
As3 S4 2.2380(11)
As3 S2 2.2471(11)
As3 As2 2.5657(6)
As1 S2 2.2343(11)
As1 S1 2.2443(10)
As1 As4 2.5710(6)
As2 S3 2.2375(10)
As2 S1 2.2411(11)
As4 S4 2.2318(11)
As4 S3 2.2351(11)
