#------------------------------------------------------------------------------
#$Date: 2016-03-21 17:14:19 +0200 (Mon, 21 Mar 2016) $
#$Revision: 178774 $
#$URL: svn://www.crystallography.net/cod/cif/4/10/28/4102884.cif $
#------------------------------------------------------------------------------
#
# This file is available in the Crystallography Open Database (COD),
# http://www.crystallography.net/
#
# All data on this site have been placed in the public domain by the
# contributors.
#
data_4102884
loop_
_publ_author_name
'Pan\<ce Naumov'
'Petre Makreski'
'Gjorgji Petru\<sevski'
'Tom\<ce Run\<cevski'
'Gligor Jovanovski'
_publ_section_title
;
 Visualization of a Discrete Solid-State Process with Steady-State X-ray
 Diffraction: Observation of Hopping of Sulfur Atoms in Single Crystals of
 Realgar
;
_journal_name_full               'Journal of the American Chemical Society'
_journal_page_first              11398
_journal_page_last               11401
_journal_paper_doi               10.1021/ja1030672
_journal_volume                  132
_journal_year                    2010
_chemical_formula_sum            'As4 S4'
_chemical_formula_weight         427.92
_chemical_name_systematic
;
 ?
;
_space_group_IT_number           14
_symmetry_cell_setting           monoclinic
_symmetry_space_group_name_Hall  '-P 2yn'
_symmetry_space_group_name_H-M   'P 1 21/n 1'
_atom_sites_solution_hydrogens   geom
_atom_sites_solution_primary     direct
_atom_sites_solution_secondary   difmap
_audit_creation_method           SHELXL-97
_cell_angle_alpha                90.00
_cell_angle_beta                 106.4140(10)
_cell_angle_gamma                90.00
_cell_formula_units_Z            4
_cell_length_a                   9.3231(2)
_cell_length_b                   13.5497(3)
_cell_length_c                   6.57930(10)
_cell_measurement_temperature    293(2)
_cell_volume                     797.26(3)
_computing_structure_refinement  'SHELXL-97 (Sheldrick, 1997)'
_diffrn_ambient_temperature      293(2)
_diffrn_measured_fraction_theta_full 0.997
_diffrn_measured_fraction_theta_max 0.997
_diffrn_radiation_monochromator  graphite
_diffrn_radiation_source         'fine-focus sealed tube'
_diffrn_radiation_type           MoK\a
_diffrn_radiation_wavelength     0.71073
_diffrn_reflns_av_R_equivalents  0.2799
_diffrn_reflns_av_sigmaI/netI    0.1500
_diffrn_reflns_limit_h_max       9
_diffrn_reflns_limit_h_min       -12
_diffrn_reflns_limit_k_max       17
_diffrn_reflns_limit_k_min       -17
_diffrn_reflns_limit_l_max       8
_diffrn_reflns_limit_l_min       -8
_diffrn_reflns_number            6388
_diffrn_reflns_theta_full        27.45
_diffrn_reflns_theta_max         27.45
_diffrn_reflns_theta_min         2.73
_exptl_absorpt_coefficient_mu    17.564
_exptl_absorpt_correction_T_max  0.4738
_exptl_absorpt_correction_T_min  0.0838
_exptl_crystal_density_diffrn    3.565
_exptl_crystal_density_method    'not measured'
_exptl_crystal_F_000             784
_exptl_crystal_size_max          0.28
_exptl_crystal_size_mid          0.20
_exptl_crystal_size_min          0.05
_refine_diff_density_max         2.445
_refine_diff_density_min         -4.262
_refine_diff_density_rms         0.704
_refine_ls_extinction_method     none
_refine_ls_goodness_of_fit_ref   1.085
_refine_ls_hydrogen_treatment    mixed
_refine_ls_matrix_type           full
_refine_ls_number_parameters     73
_refine_ls_number_reflns         1823
_refine_ls_number_restraints     0
_refine_ls_restrained_S_all      1.085
_refine_ls_R_factor_all          0.0932
_refine_ls_R_factor_gt           0.0904
_refine_ls_shift/su_max          0.000
_refine_ls_shift/su_mean         0.000
_refine_ls_structure_factor_coef Fsqd
_refine_ls_weighting_details
'calc w=1/[\s^2^(Fo^2^)+(0.1545P)^2^+1.4358P] where P=(Fo^2^+2Fc^2^)/3'
_refine_ls_weighting_scheme      calc
_refine_ls_wR_factor_gt          0.2252
_refine_ls_wR_factor_ref         0.2289
_reflns_number_gt                1725
_reflns_number_total             1823
_reflns_threshold_expression     >2sigma(I)
_cod_data_source_file            ja1030672_control-21.cif
_cod_data_source_block           new
_cod_database_code               4102884
loop_
_symmetry_equiv_pos_as_xyz
'x, y, z'
'-x+1/2, y+1/2, -z+1/2'
'-x, -y, -z'
'x-1/2, -y-1/2, z-1/2'
loop_
_atom_site_label
_atom_site_type_symbol
_atom_site_fract_x
_atom_site_fract_y
_atom_site_fract_z
_atom_site_U_iso_or_equiv
_atom_site_adp_type
_atom_site_occupancy
_atom_site_symmetry_multiplicity
_atom_site_calc_flag
As3 As 0.17919(8) 0.62664(7) 0.32224(11) 0.0246(4) Uani 1 1 d
As1 As 0.37845(9) 0.47943(7) 0.73634(12) 0.0250(4) Uani 1 1 d
As2 As 0.07629(9) 0.63909(6) 0.64355(12) 0.0245(3) Uani 1 1 d
As4 As 0.46046(9) 0.66091(7) 0.78529(13) 0.0268(4) Uani 1 1 d
S2 S 0.2858(2) 0.47675(17) 0.3843(3) 0.0265(5) Uani 1 1 d
S1 S 0.1554(2) 0.49393(16) 0.7991(3) 0.0272(5) Uani 1 1 d
S3 S 0.2612(2) 0.72600(16) 0.8602(3) 0.0294(5) Uani 1 1 d
S4 S 0.3930(2) 0.70974(17) 0.4477(3) 0.0300(5) Uani 1 1 d
loop_
_atom_site_aniso_label
_atom_site_aniso_U_11
_atom_site_aniso_U_22
_atom_site_aniso_U_33
_atom_site_aniso_U_23
_atom_site_aniso_U_13
_atom_site_aniso_U_12
As3 0.0250(5) 0.0322(6) 0.0169(5) 0.0037(3) 0.0067(4) 0.0015(3)
As1 0.0273(5) 0.0269(6) 0.0213(5) 0.0035(3) 0.0075(4) 0.0044(3)
As2 0.0225(5) 0.0277(6) 0.0262(5) -0.0017(3) 0.0118(4) 0.0012(3)
As4 0.0242(5) 0.0323(6) 0.0234(5) -0.0021(3) 0.0062(4) -0.0055(3)
S2 0.0266(10) 0.0321(11) 0.0216(10) -0.0048(7) 0.0082(7) 0.0021(7)
S1 0.0319(10) 0.0281(11) 0.0256(10) 0.0020(7) 0.0144(8) -0.0048(8)
S3 0.0346(10) 0.0305(11) 0.0266(10) -0.0078(8) 0.0141(8) -0.0022(8)
S4 0.0312(10) 0.0349(11) 0.0277(10) 0.0053(8) 0.0146(8) -0.0069(9)
loop_
_atom_type_symbol
_atom_type_description
_atom_type_scat_dispersion_real
_atom_type_scat_dispersion_imag
_atom_type_scat_source
S S 0.1246 0.1234 'International Tables Vol C Tables 4.2.6.8 and 6.1.1.4'
As As 0.0499 2.0058 'International Tables Vol C Tables 4.2.6.8 and 6.1.1.4'
loop_
_geom_angle_atom_site_label_1
_geom_angle_atom_site_label_2
_geom_angle_atom_site_label_3
_geom_angle
S4 As3 S2 94.93(8)
S4 As3 As2 99.49(6)
S2 As3 As2 99.15(6)
S2 As1 S1 94.89(8)
S2 As1 As4 99.20(7)
S1 As1 As4 98.74(7)
S3 As2 S1 94.36(9)
S3 As2 As3 99.19(6)
S1 As2 As3 99.62(6)
S4 As4 S3 94.85(8)
S4 As4 As1 99.72(7)
S3 As4 As1 99.73(7)
As1 S2 As3 101.28(9)
As1 S1 As2 101.27(8)
As4 S3 As2 101.00(9)
As4 S4 As3 100.92(8)
loop_
_geom_bond_atom_site_label_1
_geom_bond_atom_site_label_2
_geom_bond_distance
As3 S4 2.234(2)
As3 S2 2.247(2)
As3 As2 2.5620(11)
As1 S2 2.232(2)
As1 S1 2.240(2)
As1 As4 2.5682(13)
As2 S3 2.237(2)
As2 S1 2.243(2)
As4 S4 2.231(2)
As4 S3 2.234(2)
