#------------------------------------------------------------------------------
#$Date: 2016-02-14 06:40:26 +0200 (Sun, 14 Feb 2016) $
#$Revision: 176432 $
#$URL: svn://www.crystallography.net/cod/cif/4/11/09/4110943.cif $
#------------------------------------------------------------------------------
#
# This file is available in the Crystallography Open Database (COD),
# http://www.crystallography.net/
#
# All data on this site have been placed in the public domain by the
# contributors.
#
data_4110943
loop_
_publ_author_name
'Christos D. Malliakas'
'Mercouri G. Kanatzidis'
_publ_section_title
;
 Divergence in the Behavior of the Charge Density Wave inRETe3 (RE =
 Rare-Earth Element) with Temperature and RE Element
;
_journal_name_full               'Journal of the American Chemical Society'
_journal_page_first              12612
_journal_page_last               12613
_journal_paper_doi               10.1021/ja0641608
_journal_volume                  128
_journal_year                    2006
_chemical_formula_sum            'Sm Te3'
_chemical_formula_weight         533.2
_chemical_name_systematic        ' ?'
_space_group_IT_number           63
_symmetry_cell_setting           orthorhombic
_symmetry_space_group_name_Hall  '-C 2c 2'
_symmetry_space_group_name_H-M   'C m c m'
_audit_author_name               'Mercouri G. Kanatzidis'
_audit_contact_author_address
;
   Department of Chemistry
   Michigan State University 
   East Lansing, MI 48824
   USA
;
_audit_contact_author_email      kanatzidis@chemistry.msu.edu
_audit_contact_author_fax        517-353-1793
_audit_contact_author_phone      '517-355-9715 ext 174'
_audit_creation_method           'Jana2000 Version : 22/12/2005'
_cell_angle_alpha                90
_cell_angle_beta                 90
_cell_angle_gamma                90
_cell_formula_units_Z            4
_cell_length_a                   4.3343(13)
_cell_length_b                   25.674(10)
_cell_length_c                   4.3470(15)
_cell_measurement_reflns_used    3243
_cell_volume                     483.7(3)
_computing_publication_material  '(Jana2000; Petricek and Dusek, 2000)'
_computing_structure_refinement  '(Jana2000; Petricek and Dusek, 2000)'
_diffrn_ambient_temperature      500.0(3)
_diffrn_detector                 'image plate (34 cm diameter)'
_diffrn_detector_area_resol_mean 6.67
_diffrn_detector_type            STOE
_diffrn_measured_fraction_theta_full 0.91
_diffrn_measurement_device       '2-circle goniometer'
_diffrn_measurement_device_type  'STOE IPDS 2'
_diffrn_measurement_method       'rotation method'
_diffrn_radiation_collimation    '0.5 mm diameter, monocapillary'
_diffrn_radiation_monochromator  'plane graphite'
_diffrn_radiation_polarisn_norm  0
_diffrn_radiation_source         'Mo K\a'
_diffrn_radiation_type           'Mo K\a'
_diffrn_radiation_wavelength     0.71073
_diffrn_reflns_av_R_equivalents  0.0423
_diffrn_reflns_av_sigmaI/netI    0.0058
_diffrn_reflns_limit_h_max       5
_diffrn_reflns_limit_h_min       -5
_diffrn_reflns_limit_k_max       34
_diffrn_reflns_limit_k_min       -21
_diffrn_reflns_limit_l_max       5
_diffrn_reflns_limit_l_min       -5
_diffrn_reflns_number            1043
_diffrn_reflns_theta_full        29.15
_diffrn_reflns_theta_max         29.15
_diffrn_reflns_theta_min         4.77
_diffrn_source
'sealed X-ray tube, 12 x 0.4 mm long-fine focus'
_diffrn_source_current           40
_diffrn_source_power             2.00
_diffrn_source_voltage           50
_exptl_absorpt_coefficient_mu    29.639
_exptl_absorpt_correction_T_max  0.6403
_exptl_absorpt_correction_T_min  0.0501
_exptl_absorpt_correction_type   integration
_exptl_absorpt_process_details   X-Shape
_exptl_crystal_density_diffrn    7.318
_exptl_crystal_F_000             872
_exptl_crystal_size_max          0.17
_exptl_crystal_size_mid          0.11
_exptl_crystal_size_min          0.01
_refine_diff_density_max         1.24
_refine_diff_density_min         -1.56
_refine_ls_extinction_coef       0.097(9)
_refine_ls_extinction_method
'B-C type 1 gaussian isotropic (Becker & Coppens, 1974)'
_refine_ls_goodness_of_fit_gt    1.58
_refine_ls_goodness_of_fit_ref   1.55
_refine_ls_number_parameters     18
_refine_ls_number_reflns         374
_refine_ls_number_restraints     0
_refine_ls_R_factor_all          0.0281
_refine_ls_R_factor_gt           0.0269
_refine_ls_shift/su_max          0.0893
_refine_ls_shift/su_mean         0.0187
_refine_ls_structure_factor_coef Fsqd
_refine_ls_weighting_details     w=1/(\s^2^(I)+0.0016I^2^)
_refine_ls_weighting_scheme      sigma
_refine_ls_wR_factor_gt          0.0698
_refine_ls_wR_factor_ref         0.0701
_reflns_number_gt                358
_reflns_number_total             374
_reflns_threshold_expression     I>2\s(I)
_cod_data_source_file            ja0641608si20060814_055606_7.cif
_cod_data_source_block           SmTe3_500
_cod_original_sg_symbol_Hall     '-C -2zc;-2x'
_cod_original_formula_sum        'Sm1 Te3'
_cod_database_code               4110943
loop_
_symmetry_equiv_pos_site_id
_symmetry_equiv_pos_as_xyz
1 x,y,z
2 x,y,1/2-z
3 -x,y,z
4 -x,y,1/2-z
5 -x,-y,-z
6 -x,-y,1/2+z
7 x,-y,-z
8 x,-y,1/2+z
9 1/2+x,1/2+y,z
10 1/2+x,1/2+y,1/2-z
11 1/2-x,1/2+y,z
12 1/2-x,1/2+y,1/2-z
13 1/2-x,1/2-y,-z
14 1/2-x,1/2-y,1/2+z
15 1/2+x,1/2-y,-z
16 1/2+x,1/2-y,1/2+z
loop_
_atom_site_label
_atom_site_type_symbol
_atom_site_fract_x
_atom_site_fract_y
_atom_site_fract_z
_atom_site_adp_type
_atom_site_U_iso_or_equiv
_atom_site_symmetry_multiplicity
_atom_site_occupancy
_atom_site_calc_flag
Sm1 Sm 0 0.16959(2) 0.25 Uani 0.01270(18) 4 1 d
Te1 Te 0 0.29533(2) 0.25 Uani 0.0120(2) 4 1 d
Te2 Te 0 0.42900(3) 0.75 Uani 0.0179(2) 4 1 d
Te3 Te 0 0.07094(3) 0.75 Uani 0.0178(2) 4 1 d
loop_
_atom_site_aniso_label
_atom_site_aniso_type_symbol
_atom_site_aniso_U_11
_atom_site_aniso_U_22
_atom_site_aniso_U_33
_atom_site_aniso_U_12
_atom_site_aniso_U_13
_atom_site_aniso_U_23
Sm1 Sm 0.0110(3) 0.0145(3) 0.0126(3) 0 0 0
Te1 Te 0.0104(3) 0.0135(4) 0.0120(3) 0 0 0
Te2 Te 0.0166(4) 0.0192(4) 0.0180(4) 0 0 0
Te3 Te 0.0162(4) 0.0193(4) 0.0178(4) 0 0 0
loop_
_atom_type_symbol
_atom_type_scat_dispersion_real
_atom_type_scat_dispersion_imag
_atom_type_scat_source
_atom_type_scat_Cromer_Mann_a1
_atom_type_scat_Cromer_Mann_b1
_atom_type_scat_Cromer_Mann_a2
_atom_type_scat_Cromer_Mann_b2
_atom_type_scat_Cromer_Mann_a3
_atom_type_scat_Cromer_Mann_b3
_atom_type_scat_Cromer_Mann_a4
_atom_type_scat_Cromer_Mann_b4
_atom_type_scat_Cromer_Mann_c
Te -0.531 1.675 'International Tables Vol C Tables  4.2.6.8 and 6.1.1.4'
19.964399 4.81742 19.0138 0.420885 6.14487 28.5284 2.5239 70.840302 4.352
Sm -0.164 3.442 'International Tables Vol C Tables  4.2.6.8 and 6.1.1.4'
24.0042 2.47274 19.4258 0.196451 13.4396 14.3996 2.89604 128.007004 2.20963
loop_
_geom_angle_atom_site_label_1
_geom_angle_atom_site_label_2
_geom_angle_atom_site_label_3
_geom_angle_site_symmetry_1
_geom_angle_site_symmetry_3
_geom_angle
_geom_angle_publ_flag
Te1 Sm1 Te1 . 13_455 73.644(14) yes
Te1 Sm1 Te1 . 13_456 73.644(14) yes
Te1 Sm1 Te1 . 13_555 73.644(14) yes
Te1 Sm1 Te1 . 13_556 73.644(14) yes
Te1 Sm1 Te2 . 13_456 139.430(10) yes
Te1 Sm1 Te2 . 13_556 139.430(10) yes
Te1 Sm1 Te3 . 1_554 139.366(10) yes
Te1 Sm1 Te3 . . 139.366(10) yes
Te1 Sm1 Te1 13_455 . 73.644(14) yes
Te1 Sm1 Te1 13_455 13_456 85.607(6) yes
Te1 Sm1 Te1 13_455 13_555 85.297(6) yes
Te1 Sm1 Te1 13_455 13_556 147.29(2) yes
Te1 Sm1 Te2 13_455 13_456 76.896(12) yes
Te1 Sm1 Te2 13_455 13_556 130.884(13) yes
Te1 Sm1 Te3 13_455 1_554 76.774(12) yes
Te1 Sm1 Te3 13_455 . 131.010(13) yes
Te1 Sm1 Te1 13_456 . 73.644(14) yes
Te1 Sm1 Te1 13_456 13_455 85.607(6) yes
Te1 Sm1 Te1 13_456 13_555 147.29(2) yes
Te1 Sm1 Te1 13_456 13_556 85.297(6) yes
Te1 Sm1 Te2 13_456 13_456 76.896(12) yes
Te1 Sm1 Te2 13_456 13_556 130.884(13) yes
Te1 Sm1 Te3 13_456 1_554 131.010(13) yes
Te1 Sm1 Te3 13_456 . 76.774(12) yes
Te1 Sm1 Te1 13_555 . 73.644(14) yes
Te1 Sm1 Te1 13_555 13_455 85.297(6) yes
Te1 Sm1 Te1 13_555 13_456 147.29(2) yes
Te1 Sm1 Te1 13_555 13_556 85.607(6) yes
Te1 Sm1 Te2 13_555 13_456 130.884(13) yes
Te1 Sm1 Te2 13_555 13_556 76.896(12) yes
Te1 Sm1 Te3 13_555 1_554 76.774(12) yes
Te1 Sm1 Te3 13_555 . 131.010(13) yes
Te1 Sm1 Te1 13_556 . 73.644(14) yes
Te1 Sm1 Te1 13_556 13_455 147.29(2) yes
Te1 Sm1 Te1 13_556 13_456 85.297(6) yes
Te1 Sm1 Te1 13_556 13_555 85.607(6) yes
Te1 Sm1 Te2 13_556 13_456 130.884(13) yes
Te1 Sm1 Te2 13_556 13_556 76.896(12) yes
Te1 Sm1 Te3 13_556 1_554 131.010(13) yes
Te1 Sm1 Te3 13_556 . 76.774(12) yes
Te2 Sm1 Te2 13_456 13_556 81.140(16) yes
Te2 Sm1 Te3 13_456 1_554 54.798(10) yes
Te2 Sm1 Te3 13_456 . 54.798(10) yes
Te2 Sm1 Te2 13_556 13_456 81.140(16) yes
Te2 Sm1 Te3 13_556 1_554 54.798(10) yes
Te2 Sm1 Te3 13_556 . 54.798(10) yes
Te3 Sm1 Te3 1_554 . 81.267(16) yes
Te3 Sm1 Te3 . 1_554 81.267(16) yes
Sm1 Te1 Sm1 . 13_455 106.356(14) yes
Sm1 Te1 Sm1 . 13_456 106.356(14) yes
Sm1 Te1 Sm1 . 13_555 106.356(14) yes
Sm1 Te1 Sm1 . 13_556 106.356(14) yes
Sm1 Te1 Sm1 13_455 . 106.356(14) yes
Sm1 Te1 Sm1 13_455 13_456 85.607(7) yes
Sm1 Te1 Sm1 13_455 13_555 85.297(7) yes
Sm1 Te1 Sm1 13_455 13_556 147.29(2) yes
Sm1 Te1 Sm1 13_456 . 106.356(14) yes
Sm1 Te1 Sm1 13_456 13_455 85.607(7) yes
Sm1 Te1 Sm1 13_456 13_555 147.29(2) yes
Sm1 Te1 Sm1 13_456 13_556 85.297(7) yes
Sm1 Te1 Sm1 13_555 . 106.356(14) yes
Sm1 Te1 Sm1 13_555 13_455 85.297(7) yes
Sm1 Te1 Sm1 13_555 13_456 147.29(2) yes
Sm1 Te1 Sm1 13_555 13_556 85.607(7) yes
Sm1 Te1 Sm1 13_556 . 106.356(14) yes
Sm1 Te1 Sm1 13_556 13_455 147.29(2) yes
Sm1 Te1 Sm1 13_556 13_456 85.297(7) yes
Sm1 Te1 Sm1 13_556 13_555 85.607(7) yes
Sm1 Te2 Sm1 13_456 13_556 81.140(18) yes
Sm1 Te2 Te3 13_456 13_456 62.691(13) yes
Sm1 Te2 Te3 13_456 13_457 62.691(13) yes
Sm1 Te2 Te3 13_456 13_556 117.36(2) yes
Sm1 Te2 Te3 13_456 13_557 117.36(2) yes
Sm1 Te2 Sm1 13_556 13_456 81.140(18) yes
Sm1 Te2 Te3 13_556 13_456 117.36(2) yes
Sm1 Te2 Te3 13_556 13_457 117.36(2) yes
Sm1 Te2 Te3 13_556 13_556 62.691(13) yes
Sm1 Te2 Te3 13_556 13_557 62.691(13) yes
Te3 Te2 Te3 13_456 13_457 90.168 yes
Te3 Te2 Te3 13_456 13_556 89.832 yes
Te3 Te2 Te3 13_456 13_557 180 yes
Te3 Te2 Te3 13_457 13_456 90.168 yes
Te3 Te2 Te3 13_457 13_556 180 yes
Te3 Te2 Te3 13_457 13_557 89.832 yes
Te3 Te2 Te3 13_556 13_456 89.832 yes
Te3 Te2 Te3 13_556 13_457 180 yes
Te3 Te2 Te3 13_556 13_557 90.168 yes
Te3 Te2 Te3 13_557 13_456 180 yes
Te3 Te2 Te3 13_557 13_457 89.832 yes
Te3 Te2 Te3 13_557 13_556 90.168 yes
Sm1 Te3 Sm1 . 1_556 81.267(18) yes
Sm1 Te3 Te2 . 13_456 62.511(14) yes
Sm1 Te3 Te2 . 13_457 117.43(2) yes
Sm1 Te3 Te2 . 13_556 62.511(14) yes
Sm1 Te3 Te2 . 13_557 117.43(2) yes
Sm1 Te3 Sm1 1_556 . 81.267(18) yes
Sm1 Te3 Te2 1_556 13_456 117.43(2) yes
Sm1 Te3 Te2 1_556 13_457 62.511(14) yes
Sm1 Te3 Te2 1_556 13_556 117.43(2) yes
Sm1 Te3 Te2 1_556 13_557 62.511(14) yes
Te2 Te3 Te2 13_456 13_457 90.168 yes
Te2 Te3 Te2 13_456 13_556 89.832 yes
Te2 Te3 Te2 13_456 13_557 180 yes
Te2 Te3 Te2 13_457 13_456 90.168 yes
Te2 Te3 Te2 13_457 13_556 180 yes
Te2 Te3 Te2 13_457 13_557 89.832 yes
Te2 Te3 Te2 13_556 13_456 89.832 yes
Te2 Te3 Te2 13_556 13_457 180 yes
Te2 Te3 Te2 13_556 13_557 90.168 yes
Te2 Te3 Te2 13_557 13_456 180 yes
Te2 Te3 Te2 13_557 13_457 89.832 yes
Te2 Te3 Te2 13_557 13_556 90.168 yes
loop_
_geom_bond_atom_site_label_1
_geom_bond_atom_site_label_2
_geom_bond_site_symmetry_2
_geom_bond_distance
_geom_bond_publ_flag
Sm1 Te1 . 3.2281(8) yes
Sm1 Te1 13_455 3.1988(2) yes
Sm1 Te1 13_456 3.1988(2) yes
Sm1 Te1 13_555 3.1988(2) yes
Sm1 Te1 13_556 3.1988(2) yes
Sm1 Te2 13_456 3.3322(7) yes
Sm1 Te2 13_556 3.3322(7) yes
Sm1 Te3 1_554 3.3376(7) yes
Sm1 Te3 . 3.3376(7) yes
Te2 Te3 13_456 3.0693(5) yes
Te2 Te3 13_457 3.0693(5) yes
Te2 Te3 13_556 3.0693(5) yes
Te2 Te3 13_557 3.0693(5) yes
