#------------------------------------------------------------------------------
#$Date: 2016-04-07 14:36:19 +0300 (Thu, 07 Apr 2016) $
#$Revision: 181961 $
#$URL: svn://www.crystallography.net/cod/cif/4/10/50/4105040.cif $
#------------------------------------------------------------------------------
#
# This file is available in the Crystallography Open Database (COD),
# http://www.crystallography.net/
#
# All data on this site have been placed in the public domain by the
# contributors.
#
data_4105040
loop_
_publ_author_name
'Fortes, A. Dominic'
'Suard, Emmanuelle'
'Lem\'ee-Cailleau, Marie-H\'el\`ene'
'Pickard, Christopher J.'
'Needs, Richard J.'
_publ_contact_author_address
'Department of Earth Sciences, University College London'
_publ_contact_author_email       andrew.fortes@ucl.ac.uk
_publ_contact_author_name        'Dr A. Dominic Fortes'
_publ_contact_author_phone       '+44(0)20 7679 2383'
_publ_section_title
;
 Crystal Structure of Ammonia Monohydrate Phase II
;
_journal_issue                   37
_journal_name_full               'Journal of the American Chemical Society'
_journal_page_first              13508
_journal_page_last               13515
_journal_paper_doi               10.1021/ja9052569
_journal_volume                  131
_journal_year                    2009
_chemical_compound_source        'Part of sample environment'
_chemical_formula_analytical     Cu
_chemical_formula_sum            Cu
_chemical_formula_weight         63.55
_chemical_name_common            copper
_space_group_IT_number           225
_symmetry_cell_setting           cubic
_symmetry_space_group_name_Hall  '-F 4 2 3'
_symmetry_space_group_name_H-M   'F m -3 m'
_audit_author_name               'Fortes AD'
_audit_creation_date             2009-06-16T20:35
_audit_creation_method           'from EXP file using GSAS2CIF'
_cell_angle_alpha                90.0
_cell_angle_beta                 90.0
_cell_angle_gamma                90.0
_cell_formula_units_Z            4
_cell_length_a                   3.58191(23)
_cell_length_b                   3.58191
_cell_length_c                   3.58191
_cell_measurement_temperature    180
_cell_volume                     45.956(3)
_pd_block_id
2009-06-16T20:35|AMH2_FOX_PBCA_RIETVE_phase4|Fortes_AD||
_pd_phase_name                   Copper
_cod_data_source_file            ja9052569_si_002_1.cif
_cod_data_source_block           AMH2_FOX_PBCA_RIETVE_phase_4
_cod_depositor_comments
;
The following automatic conversions were performed:

'_geom_bond_publ_flag' value 'N' changed to 'n' according to the
built-in table from CIF Core dictionary named 'cif_core.dic' version
2.4.1 from 2010-06-29 (12 times).

'_geom_angle_publ_flag' value 'N'
changed to 'n' according to the built-in table from CIF Core
dictionary named 'cif_core.dic' version 2.4.1 from 2010-06-29 (66
times).

Automatic conversion script
Id: cif_fix_values 1715 2011-07-08 13:25:40Z adriana 
;
_cod_original_cell_volume        45.956(9)
_cod_database_code               4105040
_cod_database_fobs_code          4105040
loop_
_symmetry_equiv_pos_site_id
_symmetry_equiv_pos_as_xyz
1 +x,+y,+z
2 +z,+x,+y
3 +y,+z,+x
4 +x,+y,-z
5 -z,+x,+y
6 +y,-z,+x
7 -z,+x,-y
8 -y,-z,+x
9 +y,-z,-x
10 -x,+y,-z
11 -z,-x,+y
12 +x,-y,-z
13 +y,+x,+z
14 +z,+y,+x
15 +x,+z,+y
16 +y,+x,-z
17 -z,+y,+x
18 +x,-z,+y
19 -z,+y,-x
20 -x,-z,+y
21 +x,-z,-y
22 -y,+x,-z
23 -z,-y,+x
24 +y,-x,-z
-1 -x,-y,-z
-2 -z,-x,-y
-3 -y,-z,-x
-4 -x,-y,+z
-5 +z,-x,-y
-6 -y,+z,-x
-7 +z,-x,+y
-8 +y,+z,-x
-9 -y,+z,+x
-10 +x,-y,+z
-11 +z,+x,-y
-12 -x,+y,+z
-13 -y,-x,-z
-14 -z,-y,-x
-15 -x,-z,-y
-16 -y,-x,+z
-17 +z,-y,-x
-18 -x,+z,-y
-19 +z,-y,+x
-20 +x,+z,-y
-21 -x,+z,+y
-22 +y,-x,+z
-23 +z,+y,-x
-24 -y,+x,+z
101 +x,+y+1/2,+z+1/2
102 +z,+x+1/2,+y+1/2
103 +y,+z+1/2,+x+1/2
104 +x,+y+1/2,-z+1/2
105 -z,+x+1/2,+y+1/2
106 +y,-z+1/2,+x+1/2
107 -z,+x+1/2,-y+1/2
108 -y,-z+1/2,+x+1/2
109 +y,-z+1/2,-x+1/2
110 -x,+y+1/2,-z+1/2
111 -z,-x+1/2,+y+1/2
112 +x,-y+1/2,-z+1/2
113 +y,+x+1/2,+z+1/2
114 +z,+y+1/2,+x+1/2
115 +x,+z+1/2,+y+1/2
116 +y,+x+1/2,-z+1/2
117 -z,+y+1/2,+x+1/2
118 +x,-z+1/2,+y+1/2
119 -z,+y+1/2,-x+1/2
120 -x,-z+1/2,+y+1/2
121 +x,-z+1/2,-y+1/2
122 -y,+x+1/2,-z+1/2
123 -z,-y+1/2,+x+1/2
124 +y,-x+1/2,-z+1/2
-101 -x,-y+1/2,-z+1/2
-102 -z,-x+1/2,-y+1/2
-103 -y,-z+1/2,-x+1/2
-104 -x,-y+1/2,+z+1/2
-105 +z,-x+1/2,-y+1/2
-106 -y,+z+1/2,-x+1/2
-107 +z,-x+1/2,+y+1/2
-108 +y,+z+1/2,-x+1/2
-109 -y,+z+1/2,+x+1/2
-110 +x,-y+1/2,+z+1/2
-111 +z,+x+1/2,-y+1/2
-112 -x,+y+1/2,+z+1/2
-113 -y,-x+1/2,-z+1/2
-114 -z,-y+1/2,-x+1/2
-115 -x,-z+1/2,-y+1/2
-116 -y,-x+1/2,+z+1/2
-117 +z,-y+1/2,-x+1/2
-118 -x,+z+1/2,-y+1/2
-119 +z,-y+1/2,+x+1/2
-120 +x,+z+1/2,-y+1/2
-121 -x,+z+1/2,+y+1/2
-122 +y,-x+1/2,+z+1/2
-123 +z,+y+1/2,-x+1/2
-124 -y,+x+1/2,+z+1/2
201 +x+1/2,+y,+z+1/2
202 +z+1/2,+x,+y+1/2
203 +y+1/2,+z,+x+1/2
204 +x+1/2,+y,-z+1/2
205 -z+1/2,+x,+y+1/2
206 +y+1/2,-z,+x+1/2
207 -z+1/2,+x,-y+1/2
208 -y+1/2,-z,+x+1/2
209 +y+1/2,-z,-x+1/2
210 -x+1/2,+y,-z+1/2
211 -z+1/2,-x,+y+1/2
212 +x+1/2,-y,-z+1/2
213 +y+1/2,+x,+z+1/2
214 +z+1/2,+y,+x+1/2
215 +x+1/2,+z,+y+1/2
216 +y+1/2,+x,-z+1/2
217 -z+1/2,+y,+x+1/2
218 +x+1/2,-z,+y+1/2
219 -z+1/2,+y,-x+1/2
220 -x+1/2,-z,+y+1/2
221 +x+1/2,-z,-y+1/2
222 -y+1/2,+x,-z+1/2
223 -z+1/2,-y,+x+1/2
224 +y+1/2,-x,-z+1/2
-201 -x+1/2,-y,-z+1/2
-202 -z+1/2,-x,-y+1/2
-203 -y+1/2,-z,-x+1/2
-204 -x+1/2,-y,+z+1/2
-205 +z+1/2,-x,-y+1/2
-206 -y+1/2,+z,-x+1/2
-207 +z+1/2,-x,+y+1/2
-208 +y+1/2,+z,-x+1/2
-209 -y+1/2,+z,+x+1/2
-210 +x+1/2,-y,+z+1/2
-211 +z+1/2,+x,-y+1/2
-212 -x+1/2,+y,+z+1/2
-213 -y+1/2,-x,-z+1/2
-214 -z+1/2,-y,-x+1/2
-215 -x+1/2,-z,-y+1/2
-216 -y+1/2,-x,+z+1/2
-217 +z+1/2,-y,-x+1/2
-218 -x+1/2,+z,-y+1/2
-219 +z+1/2,-y,+x+1/2
-220 +x+1/2,+z,-y+1/2
-221 -x+1/2,+z,+y+1/2
-222 +y+1/2,-x,+z+1/2
-223 +z+1/2,+y,-x+1/2
-224 -y+1/2,+x,+z+1/2
301 +x+1/2,+y+1/2,+z
302 +z+1/2,+x+1/2,+y
303 +y+1/2,+z+1/2,+x
304 +x+1/2,+y+1/2,-z
305 -z+1/2,+x+1/2,+y
306 +y+1/2,-z+1/2,+x
307 -z+1/2,+x+1/2,-y
308 -y+1/2,-z+1/2,+x
309 +y+1/2,-z+1/2,-x
310 -x+1/2,+y+1/2,-z
311 -z+1/2,-x+1/2,+y
312 +x+1/2,-y+1/2,-z
313 +y+1/2,+x+1/2,+z
314 +z+1/2,+y+1/2,+x
315 +x+1/2,+z+1/2,+y
316 +y+1/2,+x+1/2,-z
317 -z+1/2,+y+1/2,+x
318 +x+1/2,-z+1/2,+y
319 -z+1/2,+y+1/2,-x
320 -x+1/2,-z+1/2,+y
321 +x+1/2,-z+1/2,-y
322 -y+1/2,+x+1/2,-z
323 -z+1/2,-y+1/2,+x
324 +y+1/2,-x+1/2,-z
-301 -x+1/2,-y+1/2,-z
-302 -z+1/2,-x+1/2,-y
-303 -y+1/2,-z+1/2,-x
-304 -x+1/2,-y+1/2,+z
-305 +z+1/2,-x+1/2,-y
-306 -y+1/2,+z+1/2,-x
-307 +z+1/2,-x+1/2,+y
-308 +y+1/2,+z+1/2,-x
-309 -y+1/2,+z+1/2,+x
-310 +x+1/2,-y+1/2,+z
-311 +z+1/2,+x+1/2,-y
-312 -x+1/2,+y+1/2,+z
-313 -y+1/2,-x+1/2,-z
-314 -z+1/2,-y+1/2,-x
-315 -x+1/2,-z+1/2,-y
-316 -y+1/2,-x+1/2,+z
-317 +z+1/2,-y+1/2,-x
-318 -x+1/2,+z+1/2,-y
-319 +z+1/2,-y+1/2,+x
-320 +x+1/2,+z+1/2,-y
-321 -x+1/2,+z+1/2,+y
-322 +y+1/2,-x+1/2,+z
-323 +z+1/2,+y+1/2,-x
-324 -y+1/2,+x+1/2,+z
loop_
_atom_site_type_symbol
_atom_site_label
_atom_site_fract_x
_atom_site_fract_y
_atom_site_fract_z
_atom_site_occupancy
_atom_site_thermal_displace_type
_atom_site_U_iso_or_equiv
_atom_site_symmetry_multiplicity
Cu Cu 0.0 0.0 0.0 1.0 Uiso 0.025 4
loop_
_atom_type_symbol
_atom_type_number_in_cell
Cu 4.0
loop_
_geom_angle_atom_site_label_1
_geom_angle_atom_site_label_2
_geom_angle_atom_site_label_3
_geom_angle
_geom_angle_site_symmetry_1
_geom_angle_site_symmetry_3
_geom_angle_publ_flag
Cu Cu Cu 90.000(5) 101_544 101_545 n
Cu Cu Cu 90.000(5) 101_544 101_554 n
Cu Cu Cu 180.0 101_544 101_555 n
Cu Cu Cu 60.0000(30) 101_544 201_454 n
Cu Cu Cu 120.0000(30) 101_544 201_455 n
Cu Cu Cu 60.0000(30) 101_544 201_554 n
Cu Cu Cu 120.0000(30) 101_544 201_555 n
Cu Cu Cu 60.0000(15) 101_544 301_445 n
Cu Cu Cu 120.0000(15) 101_544 301_455 n
Cu Cu Cu 60.0000(15) 101_544 301_545 n
Cu Cu Cu 120.0000(15) 101_544 301_555 n
Cu Cu Cu 180.0 101_545 101_554 n
Cu Cu Cu 90.000(5) 101_545 101_555 n
Cu Cu Cu 120.0000(30) 101_545 201_454 n
Cu Cu Cu 60.0000(30) 101_545 201_455 n
Cu Cu Cu 120.0000(30) 101_545 201_554 n
Cu Cu Cu 60.0000(30) 101_545 201_555 n
Cu Cu Cu 60.0000(15) 101_545 301_445 n
Cu Cu Cu 120.0000(15) 101_545 301_455 n
Cu Cu Cu 60.0000(15) 101_545 301_545 n
Cu Cu Cu 120.0000(15) 101_545 301_555 n
Cu Cu Cu 90.000(5) 101_554 101_555 n
Cu Cu Cu 60.0000(30) 101_554 201_454 n
Cu Cu Cu 120.0000(30) 101_554 201_455 n
Cu Cu Cu 60.0000(30) 101_554 201_554 n
Cu Cu Cu 120.0000(30) 101_554 201_555 n
Cu Cu Cu 120.0000(15) 101_554 301_445 n
Cu Cu Cu 60.0000(15) 101_554 301_455 n
Cu Cu Cu 120.0000(15) 101_554 301_545 n
Cu Cu Cu 60.0000(15) 101_554 301_555 n
Cu Cu Cu 120.0000(30) 101_555 201_454 n
Cu Cu Cu 60.0000(30) 101_555 201_455 n
Cu Cu Cu 120.0000(30) 101_555 201_554 n
Cu Cu Cu 60.0000(30) 101_555 201_555 n
Cu Cu Cu 120.0000(15) 101_555 301_445 n
Cu Cu Cu 60.0000(15) 101_555 301_455 n
Cu Cu Cu 120.0000(15) 101_555 301_545 n
Cu Cu Cu 60.0000(15) 101_555 301_555 n
Cu Cu Cu 90.000(5) 201_454 201_455 n
Cu Cu Cu 90.000(5) 201_454 201_554 n
Cu Cu Cu 180.0 201_454 201_555 n
Cu Cu Cu 60.0000(15) 201_454 301_445 n
Cu Cu Cu 60.0000(15) 201_454 301_455 n
Cu Cu Cu 120.0000(15) 201_454 301_545 n
Cu Cu Cu 120.0000(15) 201_454 301_555 n
Cu Cu Cu 180.0 201_455 201_554 n
Cu Cu Cu 90.000(5) 201_455 201_555 n
Cu Cu Cu 60.0000(15) 201_455 301_445 n
Cu Cu Cu 60.0000(15) 201_455 301_455 n
Cu Cu Cu 120.0000(15) 201_455 301_545 n
Cu Cu Cu 120.0000(15) 201_455 301_555 n
Cu Cu Cu 90.000(5) 201_554 201_555 n
Cu Cu Cu 120.0000(15) 201_554 301_445 n
Cu Cu Cu 120.0000(15) 201_554 301_455 n
Cu Cu Cu 60.0000(15) 201_554 301_545 n
Cu Cu Cu 60.0000(15) 201_554 301_555 n
Cu Cu Cu 120.0000(15) 201_555 301_445 n
Cu Cu Cu 120.0000(15) 201_555 301_455 n
Cu Cu Cu 60.0000(15) 201_555 301_545 n
Cu Cu Cu 60.0000(15) 201_555 301_555 n
Cu Cu Cu 90.0 301_445 301_455 n
Cu Cu Cu 90.0 301_445 301_545 n
Cu Cu Cu 180.0 301_445 301_555 n
Cu Cu Cu 180.0 301_455 301_545 n
Cu Cu Cu 90.0 301_455 301_555 n
Cu Cu Cu 90.0 301_545 301_555 n
loop_
_geom_bond_atom_site_label_1
_geom_bond_atom_site_label_2
_geom_bond_distance
_geom_bond_site_symmetry_2
_geom_bond_publ_flag
Cu Cu 2.53279(11) 101_544 n
Cu Cu 2.53279(11) 101_545 n
Cu Cu 2.53279(11) 101_554 n
Cu Cu 2.53279(11) 101_555 n
Cu Cu 2.53279(11) 201_454 n
Cu Cu 2.53279(11) 201_455 n
Cu Cu 2.53279(11) 201_554 n
Cu Cu 2.53279(11) 201_555 n
Cu Cu 2.53279(16) 301_445 n
Cu Cu 2.53279(16) 301_455 n
Cu Cu 2.53279(16) 301_545 n
Cu Cu 2.53279(16) 301_555 n
loop_
_pd_block_diffractogram_id
2009-06-16T20:35|AMH2_FOX_PBCA_RIETVE_H_01|Fortes_AD|D2B___ILL
2009-06-16T20:35|AMH2_FOX_PBCA_RIETVE_H_03|Fortes_AD|D2B___ILL
