#------------------------------------------------------------------------------
#$Date: 2015-07-14 01:53:03 +0300 (Tue, 14 Jul 2015) $
#$Revision: 151440 $
#$URL: svn://www.crystallography.net/cod/cif/1/52/87/1528774.cif $
#------------------------------------------------------------------------------
#
# This file is available in the Crystallography Open Database (COD),
# http://www.crystallography.net/
#
# All data on this site have been placed in the public domain by the
# contributors.
#
data_1528774
loop_
_publ_author_name
'Osamura, K.'
'Murakami, Y.'
'Tomiie, Y.'
_publ_section_title
;
 Crystal structures of alpha and beta selenide, = In2 Se3
;
_journal_name_full               'Journal of the Physical Society of Japan'
_journal_page_first              1848
_journal_page_last               1848
_journal_volume                  21
_journal_year                    1966
_chemical_formula_sum            'In2 Se3'
_chemical_name_systematic        'In2 Se3'
_space_group_IT_number           166
_symmetry_space_group_name_Hall  '-R 3 2"'
_symmetry_space_group_name_H-M   'R -3 m :H'
_cell_angle_alpha                90
_cell_angle_beta                 90
_cell_angle_gamma                120
_cell_formula_units_Z            3
_cell_length_a                   4.05
_cell_length_b                   4.05
_cell_length_c                   29.41
_cell_volume                     417.769
_citation_journal_id_ASTM        JUPSAU
_cod_data_source_file            Osamura_JUPSAU_1966_415.cif
_cod_data_source_block           In2Se3
_cod_original_cell_volume        417.7686
_cod_database_code               1528774
loop_
_symmetry_equiv_pos_as_xyz
x,y,z
-y,x-y,z
-x+y,-x,z
y,x,-z
-x,-x+y,-z
x-y,-y,-z
-x,-y,-z
y,-x+y,-z
x-y,x,-z
-y,-x,z
x,x-y,z
-x+y,y,z
x+2/3,y+1/3,z+1/3
-y+2/3,x-y+1/3,z+1/3
-x+y+2/3,-x+1/3,z+1/3
y+2/3,x+1/3,-z+1/3
-x+2/3,-x+y+1/3,-z+1/3
x-y+2/3,-y+1/3,-z+1/3
-x+2/3,-y+1/3,-z+1/3
y+2/3,-x+y+1/3,-z+1/3
x-y+2/3,x+1/3,-z+1/3
-y+2/3,-x+1/3,z+1/3
x+2/3,x-y+1/3,z+1/3
-x+y+2/3,y+1/3,z+1/3
x+1/3,y+2/3,z+2/3
-y+1/3,x-y+2/3,z+2/3
-x+y+1/3,-x+2/3,z+2/3
y+1/3,x+2/3,-z+2/3
-x+1/3,-x+y+2/3,-z+2/3
x-y+1/3,-y+2/3,-z+2/3
-x+1/3,-y+2/3,-z+2/3
y+1/3,-x+y+2/3,-z+2/3
x-y+1/3,x+2/3,-z+2/3
-y+1/3,-x+2/3,z+2/3
x+1/3,x-y+2/3,z+2/3
-x+y+1/3,y+2/3,z+2/3
loop_
_atom_site_label
_atom_site_type_symbol
_atom_site_fract_x
_atom_site_fract_y
_atom_site_fract_z
_atom_site_occupancy
_atom_site_U_iso_or_equiv
Se2 Se-2 0 0 0.401 1 0.0
In1 In+3 0 0 0.222 1 0.0
Se1 Se-2 0 0 0 1 0.0
