#------------------------------------------------------------------------------
#$Date: 2015-07-13 22:20:42 +0300 (Mon, 13 Jul 2015) $
#$Revision: 150929 $
#$URL: svn://www.crystallography.net/cod/cif/1/52/85/1528536.cif $
#------------------------------------------------------------------------------
#
# This file is available in the Crystallography Open Database (COD),
# http://www.crystallography.net/
#
# All data on this site have been placed in the public domain by the
# contributors.
#
data_1528536
loop_
_publ_author_name
'Green, J.L.'
'Arnold, G.P.'
'Leary, J.A.'
'Nereson, N.G.'
_publ_section_title
;
 Crystallographic and magnetic ordering studies of plutonium carbides
 using neutron diffraction
;
_journal_name_full               'Journal of Nuclear Materials'
_journal_page_first              281
_journal_page_last               289
_journal_volume                  34
_journal_year                    1970
_chemical_formula_sum            'C3 Pu2'
_chemical_name_systematic        'Pu2 C3'
_space_group_IT_number           220
_symmetry_space_group_name_Hall  'I -4bd 2c 3'
_symmetry_space_group_name_H-M   'I -4 3 d'
_cell_angle_alpha                90
_cell_angle_beta                 90
_cell_angle_gamma                90
_cell_formula_units_Z            8
_cell_length_a                   8.135
_cell_length_b                   8.135
_cell_length_c                   8.135
_cell_volume                     538.360
_citation_journal_id_ASTM        JNUMAM
_cod_data_source_file            Green_JNUMAM_1970_124.cif
_cod_data_source_block           C3Pu2
_cod_original_cell_volume        538.3599
_cod_database_code               1528536
loop_
_symmetry_equiv_pos_as_xyz
x,y,z
y+1/4,-x+3/4,-z+1/4
-x,-y+1/2,z
-y+3/4,x+3/4,-z+1/4
x,-y,-z+1/2
-y+1/4,-x+3/4,z+3/4
-x,y+1/2,-z+1/2
y+3/4,x+3/4,z+3/4
z,x,y
x+1/4,-z+3/4,-y+1/4
-z,-x+1/2,y
-x+3/4,z+3/4,-y+1/4
z,-x,-y+1/2
-x+1/4,-z+3/4,y+3/4
-z,x+1/2,-y+1/2
x+3/4,z+3/4,y+3/4
y,z,x
y,-z,-x+1/2
-z+1/4,-y+3/4,x+3/4
-y,z+1/2,-x+1/2
z+1/4,y+1/4,x+1/4
-y+1/2,-z,x+1/2
-z+1/4,y+1/4,-x+3/4
z+3/4,-y+1/4,-x+3/4
x+1/2,y+1/2,z+1/2
y+3/4,-x+5/4,-z+3/4
-x+1/2,-y+1,z+1/2
-y+5/4,x+5/4,-z+3/4
x+1/2,-y+1/2,-z+1
-y+3/4,-x+5/4,z+5/4
-x+1/2,y+1,-z+1
y+5/4,x+5/4,z+5/4
z+1/2,x+1/2,y+1/2
x+3/4,-z+5/4,-y+3/4
-z+1/2,-x+1,y+1/2
-x+5/4,z+5/4,-y+3/4
z+1/2,-x+1/2,-y+1
-x+3/4,-z+5/4,y+5/4
-z+1/2,x+1,-y+1
x+5/4,z+5/4,y+5/4
y+1/2,z+1/2,x+1/2
y+1/2,-z+1/2,-x+1
-z+3/4,-y+5/4,x+5/4
-y+1/2,z+1,-x+1
z+3/4,y+3/4,x+3/4
-y+1,-z+1/2,x+1
-z+3/4,y+3/4,-x+5/4
z+5/4,-y+3/4,-x+5/4
loop_
_atom_site_label
_atom_site_type_symbol
_atom_site_fract_x
_atom_site_fract_y
_atom_site_fract_z
_atom_site_occupancy
_atom_site_U_iso_or_equiv
Pu1 Pu 0.0492 0.0492 0.0492 1 0.0
C1 C 0.2896 0 0.25 1 0.0
