#------------------------------------------------------------------------------
#$Date: 2015-07-13 07:41:42 +0300 (Mon, 13 Jul 2015) $
#$Revision: 150123 $
#$URL: svn://www.crystallography.net/cod/cif/1/52/81/1528169.cif $
#------------------------------------------------------------------------------
#
# This file is available in the Crystallography Open Database (COD),
# http://www.crystallography.net/
#
# All data on this site have been placed in the public domain by the
# contributors.
#
data_1528169
loop_
_publ_author_name
'Vold, C.L.'
'Peterson, D.T.'
_publ_section_title
;
 The structure of U2 Zn17
;
_journal_name_full               'U.S. Atomic Energy Commission Report'
_journal_page_first              1
_journal_page_last               28
_journal_volume                  246
_journal_year                    1961
_chemical_formula_sum            'U2 Zn17'
_chemical_name_systematic        'U2 Zn17'
_space_group_IT_number           194
_symmetry_space_group_name_Hall  '-P 6c 2c'
_symmetry_space_group_name_H-M   'P 63/m m c'
_cell_angle_alpha                90
_cell_angle_beta                 90
_cell_angle_gamma                120
_cell_formula_units_Z            2
_cell_length_a                   8.962
_cell_length_b                   8.962
_cell_length_c                   8.809
_cell_volume                     612.727
_citation_journal_id_ASTM        XAERAK
_cod_data_source_file            Vold_XAERAK_1961_157.cif
_cod_data_source_block           U2Zn17
_cod_original_cell_volume        612.7271
_cod_database_code               1528169
loop_
_symmetry_equiv_pos_as_xyz
x,y,z
x-y,x,z+1/2
-y,x-y,z
-x,-y,z+1/2
-x+y,-x,z
y,-x+y,z+1/2
-y,-x,-z+1/2
x-y,-y,-z
x,x-y,-z+1/2
y,x,-z
-x+y,y,-z+1/2
-x,-x+y,-z
-x,-y,-z
-x+y,-x,-z-1/2
y,-x+y,-z
x,y,-z-1/2
x-y,x,-z
-y,x-y,-z-1/2
y,x,z-1/2
-x+y,y,z
-x,-x+y,z-1/2
-y,-x,z
x-y,-y,z-1/2
x,x-y,z
loop_
_atom_site_label
_atom_site_type_symbol
_atom_site_fract_x
_atom_site_fract_y
_atom_site_fract_z
_atom_site_occupancy
_atom_site_U_iso_or_equiv
Zn4 Zn 0.1666 0.332 0.023 1 0.0
Zn1 Zn 0.3333 0.6667 0.894 1 0.0
Zn3 Zn 0.356 0.024 0.25 1 0.0
U1 U 0 0 0.25 1 0.0
Zn2 Zn 0.5 0 0 1 0.0
U2 U 0.3333 0.6667 0.25 1 0.0
