#------------------------------------------------------------------------------
#$Date: 2015-07-13 07:44:47 +0300 (Mon, 13 Jul 2015) $
#$Revision: 150144 $
#$URL: svn://www.crystallography.net/cod/cif/1/52/81/1528180.cif $
#------------------------------------------------------------------------------
#
# This file is available in the Crystallography Open Database (COD),
# http://www.crystallography.net/
#
# All data on this site have been placed in the public domain by the
# contributors.
#
data_1528180
loop_
_publ_author_name
'Wang, R.'
_publ_section_title
;
 Formation of metastable low temperature allotropic solid solutions in
 rare earth-zirconium systems
;
_journal_name_full               'Metallurgical Transactions'
_journal_page_first              1213
_journal_page_last               1221
_journal_volume                  3
_journal_year                    1972
_chemical_formula_sum            'Y0.3 Zr0.7'
_chemical_name_systematic        '(Y0.3 Zr0.7)'
_space_group_IT_number           194
_symmetry_space_group_name_Hall  '-P 6c 2c'
_symmetry_space_group_name_H-M   'P 63/m m c'
_cell_angle_alpha                90
_cell_angle_beta                 90
_cell_angle_gamma                120
_cell_formula_units_Z            2
_cell_length_a                   3.375
_cell_length_b                   3.375
_cell_length_c                   5.31
_cell_volume                     52.381
_citation_journal_id_ASTM        MTGTBF
_cod_data_source_file            Wang_MTGTBF_1972_173.cif
_cod_data_source_block           Y0.3Zr0.7
_cod_original_cell_volume        52.38087
_cod_database_code               1528180
loop_
_symmetry_equiv_pos_as_xyz
x,y,z
x-y,x,z+1/2
-y,x-y,z
-x,-y,z+1/2
-x+y,-x,z
y,-x+y,z+1/2
-y,-x,-z+1/2
x-y,-y,-z
x,x-y,-z+1/2
y,x,-z
-x+y,y,-z+1/2
-x,-x+y,-z
-x,-y,-z
-x+y,-x,-z-1/2
y,-x+y,-z
x,y,-z-1/2
x-y,x,-z
-y,x-y,-z-1/2
y,x,z-1/2
-x+y,y,z
-x,-x+y,z-1/2
-y,-x,z
x-y,-y,z-1/2
x,x-y,z
loop_
_atom_site_label
_atom_site_type_symbol
_atom_site_fract_x
_atom_site_fract_y
_atom_site_fract_z
_atom_site_occupancy
_atom_site_U_iso_or_equiv
Zr1 Zr 0.3333 0.6667 0.25 0.7 0.0
Y1 Y 0.3333 0.6667 0.25 0.3 0.0
