#------------------------------------------------------------------------------
#$Date: 2015-07-13 06:52:22 +0300 (Mon, 13 Jul 2015) $
#$Revision: 149862 $
#$URL: svn://www.crystallography.net/cod/cif/1/52/80/1528009.cif $
#------------------------------------------------------------------------------
#
# This file is available in the Crystallography Open Database (COD),
# http://www.crystallography.net/
#
# All data on this site have been placed in the public domain by the
# contributors.
#
data_1528009
loop_
_publ_author_name
'Saccone, A.'
'Delfino, S.'
'Maccio, D.'
'Ferro, R.'
_publ_section_title
;
 Phase equilibria in the binary rare-earth alloys: The erbium-magnesium
 system
;
_journal_name_full
;
Metallurgical Transactions A: Physical Metallurgy and Materials Science
;
_journal_page_first              1005
_journal_page_last               1012
_journal_volume                  23
_journal_year                    1992
_chemical_formula_sum            'Er1.04 Mg0.96'
_chemical_name_systematic        'Er1.04 Mg0.96'
_space_group_IT_number           221
_symmetry_space_group_name_Hall  '-P 4 2 3'
_symmetry_space_group_name_H-M   'P m -3 m'
_cell_angle_alpha                90
_cell_angle_beta                 90
_cell_angle_gamma                90
_cell_formula_units_Z            1
_cell_length_a                   3.761
_cell_length_b                   3.761
_cell_length_c                   3.761
_cell_volume                     53.200
_citation_journal_id_ASTM        MTTABN
_cod_data_source_file            Saccone_MTTABN_1992_440.cif
_cod_data_source_block           Er1.04Mg0.96
_cod_original_cell_volume        53.19979
_cod_database_code               1528009
loop_
_symmetry_equiv_pos_as_xyz
x,y,z
-y,x,z
-x,-y,z
y,-x,z
x,-y,-z
y,x,-z
-x,y,-z
-y,-x,-z
z,x,y
-x,z,y
-z,-x,y
x,-z,y
z,-x,-y
x,z,-y
-z,x,-y
-x,-z,-y
y,z,x
y,-z,-x
z,y,-x
-y,z,-x
-z,-y,-x
-y,-z,x
z,-y,x
-z,y,x
-x,-y,-z
y,-x,-z
x,y,-z
-y,x,-z
-x,y,z
-y,-x,z
x,-y,z
y,x,z
-z,-x,-y
x,-z,-y
z,x,-y
-x,z,-y
-z,x,y
-x,-z,y
z,-x,y
x,z,y
-y,-z,-x
-y,z,x
-z,-y,x
y,-z,x
z,y,x
y,z,-x
-z,y,-x
z,-y,-x
loop_
_atom_site_label
_atom_site_type_symbol
_atom_site_fract_x
_atom_site_fract_y
_atom_site_fract_z
_atom_site_occupancy
_atom_site_U_iso_or_equiv
Er1 Er 0 0 0 1 0.0
Mg1 Mg 0.5 0.5 0.5 0.96 0.0
Er2 Er 0.5 0.5 0.5 0.04 0.0
