#------------------------------------------------------------------------------
#$Date: 2015-07-13 07:02:55 +0300 (Mon, 13 Jul 2015) $
#$Revision: 149915 $
#$URL: svn://www.crystallography.net/cod/cif/1/52/80/1528039.cif $
#------------------------------------------------------------------------------
#
# This file is available in the Crystallography Open Database (COD),
# http://www.crystallography.net/
#
# All data on this site have been placed in the public domain by the
# contributors.
#
data_1528039
loop_
_publ_author_name
'Schubert, K.'
'Raman, A.'
'Rossteutscher, W.'
_publ_section_title
;
 Einige Strukturdaten metallischer Phasen. X.
;
_journal_name_full               Naturwissenschaften
_journal_page_first              506
_journal_page_last               507
_journal_volume                  51
_journal_year                    1964
_chemical_formula_sum            'Hf0.45 Rh0.55'
_chemical_name_systematic        '(Hf0.45 Rh0.55)'
_space_group_IT_number           123
_symmetry_space_group_name_Hall  '-P 4 2'
_symmetry_space_group_name_H-M   'P 4/m m m'
_cell_angle_alpha                90
_cell_angle_beta                 90
_cell_angle_gamma                90
_cell_formula_units_Z            2
_cell_length_a                   3.12
_cell_length_b                   3.12
_cell_length_c                   3.41
_cell_volume                     33.194
_citation_journal_id_ASTM        NATWAY
_cod_data_source_file            Schubert_NATWAY_1964_546.cif
_cod_data_source_block           Hf0.45Rh0.55
_cod_original_cell_volume        33.1943
_cod_database_code               1528039
loop_
_symmetry_equiv_pos_as_xyz
x,y,z
-y,x,z
-x,-y,z
y,-x,z
x,-y,-z
y,x,-z
-x,y,-z
-y,-x,-z
-x,-y,-z
y,-x,-z
x,y,-z
-y,x,-z
-x,y,z
-y,-x,z
x,-y,z
y,x,z
loop_
_atom_site_label
_atom_site_type_symbol
_atom_site_fract_x
_atom_site_fract_y
_atom_site_fract_z
_atom_site_occupancy
_atom_site_U_iso_or_equiv
Hf1 Hf 0 0 0 0.9 0.0
Rh1 Rh 0 0 0 0.1 0.0
Rh2 Rh 0.5 0.5 0.5 1 0.0
