#------------------------------------------------------------------------------
#$Date: 2016-02-13 21:28:24 +0200 (Sat, 13 Feb 2016) $
#$Revision: 176429 $
#$URL: svn://www.crystallography.net/cod/cif/1/52/82/1528223.cif $
#------------------------------------------------------------------------------
#
# This file is available in the Crystallography Open Database (COD),
# http://www.crystallography.net/
#
# All data on this site have been placed in the public domain by the
# contributors.
#
data_1528223
loop_
_publ_author_name
'Yaar, I.'
'Fredo, S.'
'Gal, J.'
'Potzel, W.'
'Kalvius, G.M.'
_publ_section_title
;
 Magnetic properties of Np Ga2 and Np Si2
;
_journal_name_full
'Physical Review, Serie 3. B - Condensed Matter (18,1978-)'
_journal_page_first              9765
_journal_page_last               9771
_journal_volume                  45
_journal_year                    1992
_chemical_formula_sum            'Ga2 Np'
_chemical_name_systematic        'Ga2 Np'
_space_group_IT_number           191
_symmetry_space_group_name_Hall  '-P 6 2'
_symmetry_space_group_name_H-M   'P 6/m m m'
_cell_angle_alpha                90
_cell_angle_beta                 90
_cell_angle_gamma                120
_cell_formula_units_Z            1
_cell_length_a                   4.259
_cell_length_b                   4.259
_cell_length_c                   4.077
_cell_volume                     64.045
_citation_journal_id_ASTM        PRBMDO
_cod_data_source_file            Yaar_PRBMDO_1992_525.cif
_cod_data_source_block           Ga2Np1
_cod_original_cell_volume        64.0452
_cod_original_formula_sum        'Ga2 Np1'
_cod_database_code               1528223
loop_
_symmetry_equiv_pos_as_xyz
x,y,z
x-y,x,z
-y,x-y,z
-x,-y,z
-x+y,-x,z
y,-x+y,z
-y,-x,-z
x-y,-y,-z
x,x-y,-z
y,x,-z
-x+y,y,-z
-x,-x+y,-z
-x,-y,-z
-x+y,-x,-z
y,-x+y,-z
x,y,-z
x-y,x,-z
-y,x-y,-z
y,x,z
-x+y,y,z
-x,-x+y,z
-y,-x,z
x-y,-y,z
x,x-y,z
loop_
_atom_site_label
_atom_site_type_symbol
_atom_site_fract_x
_atom_site_fract_y
_atom_site_fract_z
_atom_site_occupancy
_atom_site_U_iso_or_equiv
Np1 Np 0 0 0 1 0.0
Ga1 Ga 0.3333 0.6667 0.5 1 0.0
