#------------------------------------------------------------------------------
#$Date: 2016-02-14 06:40:26 +0200 (Sun, 14 Feb 2016) $
#$Revision: 176432 $
#$URL: svn://www.crystallography.net/cod/cif/4/34/13/4341380.cif $
#------------------------------------------------------------------------------
#
# This file is available in the Crystallography Open Database (COD),
# http://www.crystallography.net/
#
# All data on this site have been placed in the public domain by the
# contributors.
#
data_4341380
loop_
_publ_author_name
'Isaeva, Anna'
'Ruck, Michael'
'Sch\"afer, Konrad'
'Rodewald, Ute Ch'
'P\"ottgen, Rainer'
_publ_section_title
;
 Structure and Bonding of Bi4Ir: A Difficult-to-Access Bismuth Iridide
 with a Unique Framework Structure.
;
_journal_issue                   3
_journal_name_full               'Inorganic chemistry'
_journal_page_first              885
_journal_page_last               889
_journal_paper_doi               10.1021/ic502205k
_journal_volume                  54
_journal_year                    2015
_chemical_formula_sum            'Bi4 Ir'
_chemical_formula_weight         1028.1
_chemical_name_systematic        ' ?'
_space_group_IT_number           166
_symmetry_cell_setting           trigonal
_symmetry_Int_Tables_number      166
_symmetry_space_group_name_Hall  '-R 3 2"'
_symmetry_space_group_name_H-M   'R -3 m :H'
_cell_angle_alpha                90
_cell_angle_beta                 90
_cell_angle_gamma                120
_cell_formula_units_Z            27
_cell_length_a                   26.5666
_cell_length_b                   26.5666
_cell_length_c                   7.0156
_cell_measurement_temperature    293
_cell_volume                     4288.125
_diffrn_ambient_temperature      293
_diffrn_measured_fraction_theta_full 0.67
_diffrn_measured_fraction_theta_max 0.66
_diffrn_measurement_device       'four-cycle diffractometer'
_diffrn_measurement_device_type  'IPDS Stoe'
_diffrn_measurement_method       '??integration method??'
_diffrn_radiation_monochromator  graphite
_diffrn_radiation_probe          x-ray
_diffrn_radiation_source         'X-ray tube'
_diffrn_radiation_type           'Mo K\a'
_diffrn_radiation_wavelength     0.71069
_diffrn_reflns_av_R_equivalents  0.0882
_diffrn_reflns_av_sigmaI/netI    0.099
_diffrn_reflns_av_unetI/netI     0.1199
_diffrn_reflns_limit_h_max       36
_diffrn_reflns_limit_h_min       -36
_diffrn_reflns_limit_k_max       36
_diffrn_reflns_limit_k_min       -36
_diffrn_reflns_limit_l_max       8
_diffrn_reflns_limit_l_min       1
_diffrn_reflns_number            5339
_diffrn_reflns_theta_full        17.97
_diffrn_reflns_theta_max         29.84
_diffrn_reflns_theta_min         3.04
_exptl_absorpt_coefficient_mu    131.155
_exptl_crystal_density_diffrn    10.7462
_exptl_crystal_F_000             11043
_refine_diff_density_max         5.84
_refine_diff_density_min         -5.17
_refine_ls_extinction_coef       38(8)
_refine_ls_extinction_method
'B-C type 1 Gaussian isotropic (Becker & Coppens, 1974)'
_refine_ls_goodness_of_fit_gt    0.74
_refine_ls_goodness_of_fit_ref   0.67
_refine_ls_number_constraints    0
_refine_ls_number_parameters     41
_refine_ls_number_reflns         959
_refine_ls_number_restraints     0
_refine_ls_R_factor_all          0.0921
_refine_ls_R_factor_gt           0.0280
_refine_ls_shift/su_max          0.0017
_refine_ls_shift/su_mean         0.0002
_refine_ls_structure_factor_coef Fsqd
_refine_ls_weighting_details     w=1/(\s^2^(I)+0.0004I^2^)
_refine_ls_weighting_scheme      sigma
_refine_ls_wR_factor_gt          0.0440
_refine_ls_wR_factor_ref         0.0576
_reflns_number_gt                477
_reflns_number_total             959
_reflns_threshold_expression     I>3\s(I)
_cod_data_source_file            ic502205k_si_001.cif
_cod_data_source_block           I
_cod_depositor_comments
;
The following automatic conversions were performed:

'_diffrn_radiation_probe' value 'X-ray' changed to 'x-ray' according
to
/home/saulius/struct/COD-crude-data--automatic-downloads/rss-feeds/ACS/lib/dictionaries/cif_core.dic
dictionary named 'cif_core.dic' version 2.4.2 from 2011-04-26.

Automatic conversion script
Id: cif_fix_values 2827 2014-09-09 07:05:25Z andrius 

 Adding full bibliography for 4341380.cif.
;
_cod_original_sg_symbol_Hall     '-R 3;-2"'
_cod_original_sg_symbol_H-M      'R -3 m'
_cod_original_formula_sum        'Bi4 Ir1'
_cod_database_code               4341380
loop_
_symmetry_equiv_pos_site_id
_symmetry_equiv_pos_as_xyz
1 x,y,z
2 -y,x-y,z
3 -x+y,-x,z
4 y,x,-z
5 x-y,-y,-z
6 -x,-x+y,-z
7 -x,-y,-z
8 y,-x+y,-z
9 x-y,x,-z
10 -y,-x,z
11 -x+y,y,z
12 x,x-y,z
13 x+2/3,y+1/3,z+1/3
14 -y+2/3,x-y+1/3,z+1/3
15 -x+y+2/3,-x+1/3,z+1/3
16 y+2/3,x+1/3,-z+1/3
17 x-y+2/3,-y+1/3,-z+1/3
18 -x+2/3,-x+y+1/3,-z+1/3
19 -x+2/3,-y+1/3,-z+1/3
20 y+2/3,-x+y+1/3,-z+1/3
21 x-y+2/3,x+1/3,-z+1/3
22 -y+2/3,-x+1/3,z+1/3
23 -x+y+2/3,y+1/3,z+1/3
24 x+2/3,x-y+1/3,z+1/3
25 x+1/3,y+2/3,z+2/3
26 -y+1/3,x-y+2/3,z+2/3
27 -x+y+1/3,-x+2/3,z+2/3
28 y+1/3,x+2/3,-z+2/3
29 x-y+1/3,-y+2/3,-z+2/3
30 -x+1/3,-x+y+2/3,-z+2/3
31 -x+1/3,-y+2/3,-z+2/3
32 y+1/3,-x+y+2/3,-z+2/3
33 x-y+1/3,x+2/3,-z+2/3
34 -y+1/3,-x+2/3,z+2/3
35 -x+y+1/3,y+2/3,z+2/3
36 x+1/3,x-y+2/3,z+2/3
loop_
_atom_site_label
_atom_site_type_symbol
_atom_site_fract_x
_atom_site_fract_y
_atom_site_fract_z
_atom_site_adp_type
_atom_site_U_iso_or_equiv
_atom_site_site_symmetry_multiplicity
_atom_site_occupancy
_atom_site_calc_flag
Bi1 Bi 0.06061(4) 0.24008(4) 0.18365(13) Uani 0.0145(3) 36 1 d
Bi2 Bi 0.13027(5) 0.38324(4) 0.03919(15) Uani 0.0187(4) 36 1 d
Bi3 Bi 0.60481(3) 0.39519(3) 0.0325(2) Uani 0.0151(4) 18 1 d
Bi4 Bi 0.75189(3) 0.24811(3) 0.08165(19) Uani 0.0158(5) 18 1 d
Ir1 Ir 0.16937(5) 0 0.5 Uani 0.0130(4) 18 1 d
Ir2 Ir 0.5 0 0 Uani 0.0122(6) 9 1 d
loop_
_atom_site_aniso_label
_atom_site_aniso_type_symbol
_atom_site_aniso_U_11
_atom_site_aniso_U_22
_atom_site_aniso_U_33
_atom_site_aniso_U_12
_atom_site_aniso_U_13
_atom_site_aniso_U_23
Bi1 Bi 0.0133(4) 0.0131(4) 0.0147(4) 0.0049(4) -0.0006(4) 0.0020(4)
Bi2 Bi 0.0229(5) 0.0106(4) 0.0195(5) 0.0060(4) -0.0080(4) -0.0017(4)
Bi3 Bi 0.0129(4) 0.0129(4) 0.0179(7) 0.0053(5) -0.0014(3) 0.0014(3)
Bi4 Bi 0.0177(5) 0.0177(5) 0.0131(7) 0.0097(6) 0.0006(3) -0.0006(3)
Ir1 Ir 0.0123(4) 0.0114(6) 0.0151(7) 0.0057(3) -0.0005(3) -0.0010(5)
Ir2 Ir 0.0135(6) 0.0071(8) 0.0140(9) 0.0035(4) -0.0002(3) -0.0005(7)
loop_
_atom_type_symbol
_atom_type_scat_dispersion_real
_atom_type_scat_dispersion_imag
_atom_type_scat_source
Bi -4.1077 10.2566 'International Tables Vol C tables 4.2.6.8 and 6.1.1.1'
Ir -1.4442 7.9887 'International Tables Vol C tables 4.2.6.8 and 6.1.1.1'
loop_
_refln_index_h
_refln_index_k
_refln_index_l
_refln_F_squared_calc
_refln_F_squared_meas
_refln_F_squared_sigma
_refln_observed_status
-1 1 1 2045230. 2183270. 157460. o
0 2 1 352372. 307334. 154718. <
-2 3 1 27584. 43538. 101606. <
-4 4 1 58054. 65198. 129745. <
-1 4 1 34289. 35749. 98137. <
-3 5 1 2217. 19479. 99545. <
0 5 1 216572. 212489. 135142. <
-5 6 1 59157. 79581. 86070. <
-2 6 1 817305. 760148. 92495. o
-7 7 1 14451500. 14787900. 151151. o
-4 7 1 502013. 475920. 79604. o
-1 7 1 2789. 5927. 77970. <
-6 8 1 1159350. 1274030. 73279. o
-3 8 1 357052. 390142. 75000. o
0 8 1 18849900. 18687000. 155403. o
-8 9 1 9378. 28840. 63769. <
-5 9 1 70256. 77139. 64686. <
-2 9 1 141117. 120850. 64954. <
-10 10 1 1912520. 1868260. 91785. o
-7 10 1 2646870. 2630270. 69734. o
-4 10 1 156667. 157534. 67595. <
-1 10 1 3201900. 3259050. 70902. o
-9 11 1 3416900. 3353820. 66693. o
-6 11 1 3330840. 3374370. 67754. o
-3 11 1 11102. 52294. 62468. <
0 11 1 5851500. 5905310. 104233. o
-11 12 1 448151. 494040. 56039. o
-8 12 1 116253. 150075. 56231. <
-5 12 1 4139680. 4141490. 68227. o
-2 12 1 957156. 928741. 56673. o
-13 13 1 514931. 487591. 77114. o
-10 13 1 835670. 903063. 54821. o
-7 13 1 10832. 52728. 56613. <
-4 13 1 311562. 361476. 56961. o
-1 13 1 7334. 53649. 55962. <
-12 14 1 1353130. 1290080. 55341. o
-9 14 1 1254710. 1218930. 56988. o
-6 14 1 74655. 78434. 55735. <
-3 14 1 289745. 307154. 55255. o
0 14 1 5312380. 5214260. 96309. o
-14 15 1 95448. 133376. 50224. <
-11 15 1 186835. 254640. 55512. o
-8 15 1 341369. 333169. 52349. o
-5 15 1 757641. 745071. 54257. o
-2 15 1 351007. 340515. 54354. o
-16 16 1 6708940. 6454580. 85549. o
-13 16 1 1131170. 1197370. 52312. o
-10 16 1 2528360. 2559070. 60052. o
-7 16 1 1866540. 1796050. 55261. o
-4 16 1 1529160. 1500310. 57211. o
-1 16 1 50304. 73440. 54719. <
-15 17 1 741758. 793662. 52196. o
-12 17 1 1707170. 1712700. 54212. o
-9 17 1 2935170. 3036760. 57883. o
-6 17 1 1593830. 1601910. 55037. o
-3 17 1 3336840. 3317810. 58884. o
0 17 1 1152220. 1200930. 78746. o
-17 18 1 373626. 375988. 49973. o
-14 18 1 183933. 167464. 50013. o
-11 18 1 204893. 233268. 52763. o
-8 18 1 713073. 664822. 54457. o
-5 18 1 1073500. 1105720. 55556. o
-2 18 1 872148. 903886. 51659. o
-19 19 1 6429150. 6309620. 85061. o
-16 19 1 221961. 211592. 49003. o
-13 19 1 1868. 45192. 51552. <
-10 19 1 2823280. 2734440. 58237. o
-7 19 1 4458480. 4476140. 60500. o
-4 19 1 63436. 86091. 51232. <
-1 19 1 88949. 89202. 54938. <
-18 20 1 167736. 172748. 52160. o
-15 20 1 914431. 916811. 52057. o
-12 20 1 904836. 885775. 51751. o
-9 20 1 837582. 842464. 50787. o
-6 20 1 1020910. 982853. 52464. o
-3 20 1 1218600. 1226890. 53833. o
0 20 1 4147420. 4062450. 83636. o
-20 21 1 60882. 106166. 49568. <
-17 21 1 1362350. 1330330. 52844. o
-14 21 1 209. 38560. 51678. <
-11 21 1 315413. 343316. 50329. o
-8 21 1 844. 60207. 51462. <
-5 21 1 119925. 118031. 52266. <
-2 21 1 77377. 95398. 46967. <
-22 22 1 205750. 290447. 74609. o
-19 22 1 262399. 287021. 49165. o
-16 22 1 6843. 41415. 50595. <
-13 22 1 73. 199. 49546. <
-10 22 1 118418. 126326. 52030. <
-7 22 1 85487. 128687. 50944. <
-4 22 1 604077. 579657. 49604. o
-1 22 1 102781. 117683. 50583. <
-21 23 1 151563. 162202. 50260. o
-18 23 1 120762. 170854. 51415. o
-15 23 1 595478. 589978. 49694. o
-12 23 1 954255. 906492. 54549. o
-9 23 1 227559. 222339. 50140. o
-6 23 1 4621060. 4516000. 61531. o
-3 23 1 165481. 190833. 56605. o
0 23 1 690637. 669536. 75844. o
-23 24 1 1212460. 1215590. 52057. o
-20 24 1 12199. 59973. 53161. <
-17 24 1 7450. 45608. 51155. <
-14 24 1 1954. 53232. 49330. <
-11 24 1 408805. 452189. 51886. o
-8 24 1 998159. 926643. 51581. o
-5 24 1 463092. 503968. 56444. o
-2 24 1 1303. 32778. 51588. <
-25 25 1 611549. 709904. 74802. o
-22 25 1 588551. 583251. 52689. o
-19 25 1 397380. 374663. 49226. o
-16 25 1 1084480. 1111360. 51602. o
-13 25 1 63186. 132477. 52170. <
-10 25 1 332575. 318711. 52676. o
-7 25 1 391542. 423184. 52227. o
-4 25 1 98321. 140975. 54485. <
-1 25 1 232242. 261440. 54023. o
-24 26 1 342033. 369979. 51896. o
-21 26 1 471406. 520383. 53098. o
-18 26 1 15968. 64238. 52312. <
-15 26 1 21876. 56179. 55221. <
-12 26 1 5519. 88920. 55275. <
-9 26 1 1702320. 1706560. 55963. o
-6 26 1 307923. 330640. 53884. o
-3 26 1 253583. 292859. 53789. o
0 26 1 1410780. 1464850. 80472. o
-26 27 1 2387700. 2346270. 58071. o
-23 27 1 414040. 469142. 51990. o
-20 27 1 11447. 53125. 51842. <
-17 27 1 130202. 186720. 52463. o
-14 27 1 270939. 253790. 51478. o
-11 27 1 24022. 46674. 53433. <
-8 27 1 1042. 29742. 53413. <
-5 27 1 34246. 100668. 56921. <
-2 27 1 703374. 663356. 57647. o
-28 28 1 648655. 653459. 78796. o
-25 28 1 254889. 306753. 54493. o
-22 28 1 339. 26580. 53395. <
-19 28 1 5347. 35488. 51805. <
-16 28 1 348980. 347951. 53813. o
-13 28 1 8169. 55907. 54209. <
-10 28 1 20413. 28442. 49457. <
-7 28 1 27290. 33899. 53053. <
-4 28 1 117439. 150518. 55968. <
-1 28 1 721191. 713002. 57809. o
-27 29 1 86763. 158175. 57773. <
-24 29 1 409234. 424751. 54682. o
-21 29 1 73370. 67476. 53363. <
-18 29 1 265834. 249608. 55037. o
-15 29 1 30201. 70364. 51355. <
-12 29 1 34514. 97614. 56812. <
-9 29 1 711. 40385. 52672. <
-6 29 1 523368. 591744. 54707. o
-3 29 1 2091. 56359. 56539. <
0 29 1 231594. 261232. 83535. o
-29 30 1 97236. 151797. 59924. <
-26 30 1 139520. 158255. 56294. <
-23 30 1 234684. 270616. 55016. o
-20 30 1 468914. 454391. 55264. o
-17 30 1 637085. 617385. 54678. o
-14 30 1 159502. 153344. 55573. <
-11 30 1 64362. 123332. 55133. <
-8 30 1 94885. 116125. 55695. <
-5 30 1 44156. 93224. 55927. <
-2 30 1 442088. 419820. 62474. o
-31 31 1 29224. 71051. 87223. <
-28 31 1 49496. 101645. 58096. <
-25 31 1 48502. 75226. 56686. <
-22 31 1 778. 64020. 57659. <
-19 31 1 349523. 397991. 55492. o
-16 31 1 6490. 22460. 55582. <
-13 31 1 11104. 41054. 60840. <
-10 31 1 57458. 75372. 56344. <
-7 31 1 1911. 54732. 59159. <
-4 31 1 3908. 24484. 59394. <
-1 31 1 358236. 343974. 61746. o
-30 32 1 100123. 148002. 62363. <
-27 32 1 12126. 55690. 57281. <
-24 32 1 1739430. 1702560. 60796. o
-21 32 1 33376. 67744. 66046. <
-18 32 1 14052. 17293. 55763. <
-15 32 1 167. 48986. 57244. <
-12 32 1 143732. 193912. 60252. o
-9 32 1 400534. 413767. 60429. o
-6 32 1 559349. 540578. 58232. o
-3 32 1 172140. 163554. 61157. <
-29 33 1 31275. 64618. 62648. <
-26 33 1 796783. 741106. 59673. o
-23 33 1 564913. 578421. 60384. o
-20 33 1 177243. 181971. 58193. o
-17 33 1 109720. 143233. 58569. <
-14 33 1 1160. 13986. 59737. <
-11 33 1 63698. 98882. 60861. <
-8 33 1 2990. 17545. 64002. <
-5 33 1 37101. 81188. 61637. <
-2 33 1 1173. 28893. 142640. <
-28 34 1 117122. 113940. 60882. <
-25 34 1 136261. 143941. 57775. <
-22 34 1 94787. 135948. 60845. <
-19 34 1 199615. 249278. 62243. o
-16 34 1 413. 56394. 55925. <
-13 34 1 138369. 136369. 62763. <
-10 34 1 540782. 508656. 60454. o
-7 34 1 673406. 655275. 62884. o
-27 35 1 456103. 453097. 64589. o
-24 35 1 397576. 397527. 65833. o
-21 35 1 50757. 75118. 65197. <
-18 35 1 23055. 80754. 61076. <
-15 35 1 138375. 188506. 60793. o
-12 35 1 157297. 178316. 61716. <
-9 35 1 436147. 402439. 62455. o
-23 36 1 150652. 152075. 64571. <
-20 36 1 29009. 48770. 64148. <
-17 36 1 69124. 95756. 61747. <
-14 36 1 357630. 322626. 62324. o
-11 36 1 152370. 204845. 74601. <
0 1 2 2168550. 2122320. 108299. o
-2 2 2 3117890. 3055850. 106232. o
-1 3 2 1748500. 2014210. 75008. o
-3 4 2 32187. 77220. 67660. <
0 4 2 41897. 80060. 98602. <
-5 5 2 3890410. 3966290. 120747. o
-2 5 2 2494840. 2346810. 77457. o
-4 6 2 5709740. 5923220. 83816. o
-1 6 2 509890. 606123. 67498. o
-6 7 2 176324. 251485. 63929. o
-3 7 2 4202020. 4046580. 74536. o
0 7 2 9570390. 9851880. 126822. o
-8 8 2 9925940. 10096600. 129194. o
-5 8 2 74436. 81168. 68553. <
-2 8 2 11957. 44488. 65793. <
-7 9 2 2980110. 2814620. 71397. o
-4 9 2 4691630. 4490420. 73848. o
-1 9 2 498875. 456248. 67326. o
-9 10 2 30502. 55170. 60844. <
-6 10 2 105314. 142806. 64562. <
-3 10 2 845322. 764883. 66352. o
0 10 2 489878. 552723. 99444. o
-11 11 2 367. 50540. 74916. <
-8 11 2 3198920. 3061400. 67103. o
-5 11 2 6417. 29038. 70652. <
-2 11 2 1775960. 1877050. 74179. o
-10 12 2 6149. 24683. 56612. <
-7 12 2 1821450. 1934000. 64345. o
-4 12 2 333018. 387921. 67125. o
-1 12 2 87234. 139504. 63164. <
-12 13 2 898151. 874896. 55681. o
-9 13 2 1094000. 1205810. 62377. o
-6 13 2 51756. 55028. 69123. <
-3 13 2 37420. 18396. 63844. <
0 13 2 27125. 3722. 94128. <
-14 14 2 1118870. 1166910. 82436. o
-11 14 2 19568. 25912. 58330. <
-8 14 2 1514380. 1486790. 59741. o
-5 14 2 145805. 150599. 63099. <
-2 14 2 731740. 752000. 63187. o
-13 15 2 12891. 23075. 54462. <
-10 15 2 1419700. 1555470. 62182. o
-7 15 2 942970. 874433. 59738. o
-4 15 2 358738. 322936. 62797. o
-1 15 2 672764. 630495. 57745. o
-15 16 2 397166. 382634. 54225. o
-12 16 2 779507. 845487. 56400. o
-9 16 2 695260. 660675. 57696. o
-6 16 2 131130. 141969. 61487. <
-3 16 2 16245. 45157. 60082. <
0 16 2 341106. 386805. 79838. o
-17 17 2 3028090. 2980290. 78960. o
-14 17 2 7698. 48300. 52312. <
-11 17 2 5033300. 5090820. 65116. o
-8 17 2 8666. 66767. 53775. <
-5 17 2 21150. 38200. 56722. <
-2 17 2 594845. 606384. 55833. o
-16 18 2 105722. 136012. 52373. <
-13 18 2 11320. 65069. 53577. <
-10 18 2 260491. 247294. 56039. o
-7 18 2 1099460. 1133310. 59355. o
-4 18 2 586285. 612462. 56609. o
-1 18 2 68864. 87916. 51142. <
-18 19 2 1422580. 1422950. 52631. o
-15 19 2 1897510. 1831480. 55900. o
-12 19 2 2143770. 2198350. 57523. o
-9 19 2 395284. 362206. 55073. o
-6 19 2 34914. 55765. 57590. <
-3 19 2 840318. 813968. 58652. o
0 19 2 413810. 430527. 80598. o
-20 20 2 38214. 64457. 75534. <
-17 20 2 219397. 203107. 52652. o
-14 20 2 175283. 191674. 50643. o
-11 20 2 495866. 475121. 54754. o
-8 20 2 61559. 111860. 60231. <
-5 20 2 356777. 381494. 61106. o
-2 20 2 187703. 225292. 60258. o
-19 21 2 223154. 214382. 51332. o
-16 21 2 1230650. 1184610. 53900. o
-13 21 2 2826. 51697. 55961. <
-10 21 2 1327420. 1277330. 59415. o
-7 21 2 235899. 253614. 59486. o
-4 21 2 166092. 184330. 55395. o
-1 21 2 35756. 80539. 56433. <
-21 22 2 218672. 250381. 50210. o
-18 22 2 25379. 75279. 53108. <
-15 22 2 616424. 587968. 54704. o
-12 22 2 209329. 221376. 62429. o
-9 22 2 33752. 56108. 55801. <
-6 22 2 1606950. 1643200. 61347. o
-3 22 2 13683. 26725. 59630. <
0 22 2 719378. 694938. 81254. o
-23 23 2 588871. 607895. 72615. o
-20 23 2 252361. 292342. 54098. o
-17 23 2 1206880. 1232380. 53729. o
-14 23 2 2795900. 2756220. 60078. o
-11 23 2 305697. 338718. 59092. o
-8 23 2 217086. 282773. 56880. o
-5 23 2 1777980. 1803340. 58166. o
-2 23 2 537420. 527397. 56376. o
-22 24 2 19333. 58962. 50722. <
-19 24 2 55223. 112182. 52621. <
-16 24 2 5032500. 5016210. 64176. o
-13 24 2 1116. 64634. 58382. <
-10 24 2 215864. 235181. 56934. o
-7 24 2 19211. 70328. 57444. <
-4 24 2 272962. 305722. 61003. o
-1 24 2 465582. 512313. 54344. o
-24 25 2 189768. 209268. 53966. o
-21 25 2 11041. 48445. 53739. <
-18 25 2 89. 37422. 53829. <
-15 25 2 38593. 33611. 56216. <
-12 25 2 119190. 162069. 57686. <
-9 25 2 170304. 132638. 59171. <
-6 25 2 363488. 434966. 55912. o
-3 25 2 100294. 97224. 58660. <
0 25 2 130142. 162719. 79570. <
-26 26 2 894935. 910456. 83231. o
-23 26 2 678951. 646698. 55314. o
-20 26 2 587568. 605644. 53375. o
-17 26 2 32872. 69805. 53397. <
-14 26 2 1568980. 1520380. 56478. o
-11 26 2 5227. 57678. 58130. <
-8 26 2 36449. 95049. 58475. <
-5 26 2 782643. 779978. 63206. o
-2 26 2 164589. 169267. 60922. <
-25 27 2 12719. 31640. 57046. <
-22 27 2 10774. 33176. 55365. <
-19 27 2 1506550. 1484670. 58260. o
-16 27 2 5957. 35633. 64996. <
-13 27 2 286814. 250847. 59847. o
-10 27 2 1822540. 1836300. 61233. o
-7 27 2 3271940. 3193070. 64970. o
-4 27 2 140315. 186196. 57993. o
-1 27 2 41792. 105530. 61890. <
-27 28 2 63565. 79709. 59109. <
-24 28 2 60116. 101972. 59416. <
-21 28 2 357619. 391185. 58368. o
-18 28 2 544935. 587812. 57060. o
-15 28 2 517319. 567278. 59716. o
-12 28 2 8297. 6342. 55239. <
-9 28 2 1317560. 1272840. 61576. o
-6 28 2 380253. 434666. 62743. o
-3 28 2 1445. 21810. 61183. <
0 28 2 1261850. 1323090. 92230. o
-29 29 2 141119. 99521. 87739. <
-26 29 2 370121. 361029. 56433. o
-23 29 2 12441. 57010. 57190. <
-20 29 2 12608. 91215. 54534. <
-17 29 2 948808. 954985. 60013. o
-14 29 2 167410. 187141. 59820. o
-11 29 2 88884. 97403. 62598. <
-8 29 2 23746. 75405. 62576. <
-5 29 2 215351. 282195. 61774. o
-2 29 2 142647. 187983. 62547. o
-28 30 2 29020. 55511. 63299. <
-25 30 2 543840. 616489. 60004. o
-22 30 2 31877. 58655. 60408. <
-19 30 2 509155. 486315. 66873. o
-16 30 2 536993. 526395. 61560. o
-13 30 2 227443. 268934. 56624. o
-10 30 2 622326. 658424. 60859. o
-7 30 2 1028. -759. 61328. <
-4 30 2 104494. 148130. 61460. <
-1 30 2 6059. 27664. 62394. <
-30 31 2 6033. 41578. 66333. <
-27 31 2 62190. 96044. 59777. <
-24 31 2 115618. 143035. 56437. <
-21 31 2 365063. 353708. 61638. o
-18 31 2 143. 46511. 59846. <
-15 31 2 53139. 82238. 60138. <
-12 31 2 274422. 275343. 61832. o
-9 31 2 118968. 170179. 61208. <
-6 31 2 553851. 565580. 64795. o
-3 31 2 739648. 733507. 64462. o
0 31 2 185651. 218116. 94121. <
-29 32 2 56724. 69860. 66427. <
-26 32 2 184401. 198978. 63724. o
-23 32 2 49725. 93622. 65740. <
-20 32 2 38620. 53361. 65323. <
-17 32 2 1146500. 1079410. 62409. o
-14 32 2 56. 32724. 60948. <
-11 32 2 196817. 284068. 65333. o
-8 32 2 301262. 381770. 68448. o
-5 32 2 453189. 423417. 61986. o
-2 32 2 129585. 143922. 66810. <
-28 33 2 3774. 38054. 61490. <
-25 33 2 275562. 214575. 63874. o
-22 33 2 2765. 43096. 60786. <
-19 33 2 620419. 608356. 61996. o
-16 33 2 1618030. 1542870. 66380. o
-13 33 2 22002. 41344. 62160. <
-10 33 2 175592. 189507. 67934. <
-7 33 2 464997. 427922. 67428. o
-4 33 2 228566. 207823. 64322. o
-27 34 2 56977. 97778. 66083. <
-24 34 2 482768. 487693. 69472. o
-21 34 2 342045. 316767. 63371. o
-18 34 2 827. 31043. 63966. <
-15 34 2 87051. 93209. 65362. <
-12 34 2 355146. 365284. 65975. o
-9 34 2 177. 470. 66676. <
-6 34 2 95453. 109420. 71127. <
-26 35 2 23772. 69243. 72749. <
-23 35 2 181980. 217610. 68856. o
-20 35 2 14896. 12125. 64960. <
-17 35 2 539498. 490321. 68282. o
-14 35 2 19918. 32815. 62431. <
-11 35 2 10831. 95931. 71212. <
-22 36 2 185303. 183399. 67302. <
-19 36 2 1044. 41849. 65700. <
-16 36 2 691082. 651992. 65326. o
-1 1 4 835394. 961308. 71394. o
0 2 4 496194. 575470. 70473. o
-2 3 4 147841. 192861. 51713. o
-4 4 4 861263. 841069. 70542. o
-1 4 4 2145140. 2078270. 52890. o
-3 5 4 2560950. 2452310. 56763. o
0 5 4 2302820. 2479250. 76243. o
-5 6 4 259298. 264925. 48794. o
-2 6 4 4438070. 4557900. 58499. o
-7 7 4 1977920. 2067230. 82795. o
-4 7 4 22689. 68721. 50036. <
-1 7 4 6665. 23382. 50270. <
-6 8 4 1255720. 1258940. 57705. o
-3 8 4 562553. 613492. 51661. o
0 8 4 95557. 117616. 77423. <
-8 9 4 250906. 235242. 51250. o
-5 9 4 223767. 254883. 51880. o
-2 9 4 1861700. 1819420. 55732. o
-10 10 4 795738. 707025. 78164. o
-7 10 4 141227. 116504. 53372. <
-4 10 4 1455660. 1475110. 54765. o
-1 10 4 5619. 19750. 54498. <
-9 11 4 273581. 283674. 54667. o
-6 11 4 215700. 266604. 53776. o
-3 11 4 931633. 882236. 53733. o
0 11 4 87700. 136118. 72143. <
-11 12 4 4406560. 4382590. 62227. o
-8 12 4 59302. 95488. 53888. <
-5 12 4 5867. 55076. 55980. <
-2 12 4 182779. 194140. 54423. o
-13 13 4 498747. 536823. 73163. o
-10 13 4 144226. 166456. 52684. o
-7 13 4 523. 18268. 50359. <
-4 13 4 678649. 683519. 56726. o
-1 13 4 711516. 728058. 55316. o
-12 14 4 576651. 621519. 57709. o
-9 14 4 1906190. 1844940. 58444. o
-6 14 4 2579810. 2654980. 58886. o
-3 14 4 263384. 298696. 55983. o
0 14 4 843. 26942. 84908. <
-14 15 4 1671050. 1613690. 55910. o
-11 15 4 5382830. 5243370. 65906. o
-8 15 4 65005. 113505. 57105. <
-5 15 4 335465. 379662. 55464. o
-2 15 4 147959. 156261. 57925. <
-16 16 4 730513. 708147. 76416. o
-13 16 4 13891. 26960. 51968. <
-10 16 4 1054680. 1081630. 58995. o
-7 16 4 693772. 657329. 57391. o
-4 16 4 107786. 112174. 59096. <
-1 16 4 64255. 70260. 61803. <
-15 17 4 262796. 330801. 54317. o
-12 17 4 1189470. 1178000. 57934. o
-9 17 4 78057. 82152. 56744. <
-6 17 4 1158100. 1149120. 61389. o
-3 17 4 246066. 249095. 60624. o
0 17 4 378580. 409557. 93481. o
-17 18 4 519. 51462. 57732. <
-14 18 4 679641. 759778. 60170. o
-11 18 4 88874. 133024. 61570. <
-8 18 4 148174. 169127. 60382. <
-5 18 4 127703. 208266. 63398. o
-2 18 4 48642. 100309. 65542. <
-19 19 4 637490. 661108. 85857. o
-16 19 4 564823. 565149. 58459. o
-13 19 4 648253. 660400. 60980. o
-10 19 4 4237. 39825. 67002. <
-7 19 4 236048. 297042. 63515. o
-4 19 4 73076. 93807. 70206. <
-1 19 4 12935. 12342. 67129. <
-18 20 4 15559. 34387. 57263. <
-15 20 4 1507520. 1502860. 66780. o
-12 20 4 580746. 518439. 67845. o
-9 20 4 182243. 232352. 67342. o
-6 20 4 4856. 46131. 69351. <
-3 20 4 148934. 145484. 66868. <
0 20 4 2546. 26562. 92696. <
-20 21 4 1198880. 1181950. 62187. o
-17 21 4 574130. 616990. 61278. o
-14 21 4 246381. 294834. 66605. o
-11 21 4 254656. 220604. 77686. <
-8 21 4 472524. 468930. 73566. o
-5 21 4 506652. 495954. 80709. o
-2 21 4 206145. 151818. 67866. <
-22 22 4 50952. 97092. 87171. <
-19 22 4 77583. 145959. 57718. <
-16 22 4 11060. 42735. 58383. <
-13 22 4 165253. 235688. 74804. o
-10 22 4 592005. 646714. 87191. o
-7 22 4 1377440. 1378650. 76554. o
-4 22 4 18137. 94414. 75965. <
-1 22 4 82426. 128575. 71868. <
-21 23 4 1641220. 1685820. 64728. o
-18 23 4 496393. 539663. 65121. o
-15 23 4 154565. 173695. 71043. <
-12 23 4 2055850. 2131970. 80831. o
-9 23 4 169595. 291316. 92081. o
-6 23 4 171687. 208253. 73339. <
-3 23 4 401791. 397642. 72652. o
0 23 4 883466. 967027. 105802. o
-23 24 4 1275110. 1353660. 63650. o
-20 24 4 54436. 119174. 59018. <
-17 24 4 205869. 253714. 64124. o
-14 24 4 264169. 328795. 85475. o
-11 24 4 591074. 625226. 88670. o
-8 24 4 870437. 936732. 82130. o
-5 24 4 83532. 142851. 77651. <
-2 24 4 1564300. 1711270. 75597. o
-25 25 4 115899. 174245. 94441. <
-22 25 4 195166. 185609. 58484. o
-19 25 4 643493. 684888. 65599. o
-16 25 4 53045. 106796. 87208. <
-13 25 4 44861. 63806. 104681. <
-10 25 4 898019. 875681. 90614. o
-7 25 4 607316. 656533. 84564. o
-4 25 4 164396. 168778. 73916. <
-1 25 4 177407. 164297. 74296. <
-24 26 4 171185. 252471. 66036. o
-21 26 4 66267. 53489. 62976. <
-18 26 4 18153. 23744. 81404. <
-15 26 4 1339420. 1342750. 99809. o
-12 26 4 992733. 1164670. 111241. o
-9 26 4 310238. 313513. 88984. o
-6 26 4 81490. 173354. 81120. <
-3 26 4 36689. -6505. 74051. <
0 26 4 202350. 301636. 106395. <
-26 27 4 38682. 64203. 61709. <
-23 27 4 261897. 309227. 66838. o
-20 27 4 8897. 19967. 67056. <
-17 27 4 66568. 145866. 92503. <
-14 27 4 703778. 773903. 114786. o
-11 27 4 1799. 20744. 96039. <
-8 27 4 107191. 165389. 86688. <
-5 27 4 30164. 57408. 79472. <
-2 27 4 51912. 100814. 75733. <
-28 28 4 124311. 181998. 88930. <
-25 28 4 11126. 32850. 69676. <
-22 28 4 537537. 543103. 66783. o
-19 28 4 318642. 368206. 73891. o
-16 28 4 111793. 176612. 113777. <
-13 28 4 3029. 88775. 101026. <
-10 28 4 530423. 630625. 109395. o
-7 28 4 380338. 418948. 86150. o
-4 28 4 45176. 69859. 74142. <
-1 28 4 517541. 512079. 70089. o
-27 29 4 34474. 49530. 72623. <
-24 29 4 2165. 39771. 65014. <
-21 29 4 228650. 227760. 73631. o
-18 29 4 183877. 205594. 99905. <
-15 29 4 238992. 239095. 101736. <
-12 29 4 111645. 149269. 101579. <
-9 29 4 326706. 419160. 88152. o
-6 29 4 230777. 301264. 85433. o
-3 29 4 568721. 555728. 77360. o
0 29 4 15104. 52583. 94902. <
-26 30 4 2536. 32182. 69549. <
-23 30 4 5219. 33682. 63117. <
-20 30 4 261194. 322275. 87984. o
-17 30 4 100300. 86488. 115763. <
-14 30 4 163860. 288812. 107927. <
-11 30 4 70059. 58151. 90118. <
-8 30 4 526096. 575830. 94098. o
-5 30 4 619225. 583162. 79189. o
-2 30 4 1750. 32778. 76903. <
-25 31 4 6806. 41759. 74591. <
-22 31 4 147321. 143689. 74402. <
-19 31 4 44613. 164980. 105078. <
-16 31 4 659548. 667300. 100763. o
-13 31 4 55353. 195250. 91924. <
-10 31 4 1101560. 1055990. 89915. o
-7 31 4 130. 41162. 81529. <
-4 31 4 594470. 545213. 82586. o
-24 32 4 1982. 25460. 72603. <
-21 32 4 92485. 110883. 97583. <
-18 32 4 290599. 349556. 108554. o
-15 32 4 4293. 1301. 90221. <
-12 32 4 419274. 406501. 98028. o
-9 32 4 139106. 146995. 88876. <
-23 33 4 3428. 61057. 79776. <
-20 33 4 281723. 262254. 99317. <
-17 33 4 262398. 270925. 103725. <
-14 33 4 126383. 191973. 89797. <
-11 33 4 60093. 103200. 88599. <
0 1 5 94276. 100229. 66705. <
-2 2 5 927803. 1010550. 72626. o
-1 3 5 897183. 948472. 49222. o
-3 4 5 2259730. 2282260. 54755. o
0 4 5 23972. 35670. 68160. <
-5 5 5 18335. 26527. 68340. <
-2 5 5 236873. 241916. 48553. o
-4 6 5 744830. 710559. 51179. o
-1 6 5 70863. 65057. 49480. <
-6 7 5 1178320. 1151310. 53837. o
-3 7 5 249957. 310880. 50379. o
0 7 5 1386270. 1392560. 73229. o
-8 8 5 100715. 92836. 77728. <
-5 8 5 6137. 21792. 47342. <
-2 8 5 2907680. 2854170. 55267. o
-7 9 5 894638. 854759. 53503. o
-4 9 5 1033220. 1049050. 53116. o
-1 9 5 66952. 78049. 51738. <
-9 10 5 463181. 473553. 52617. o
-6 10 5 23476. 63227. 54156. <
-3 10 5 380905. 387931. 50062. o
0 10 5 1771330. 1693200. 76771. o
-11 11 5 789. -2530. 75494. <
-8 11 5 96439. 145840. 51993. <
-5 11 5 5811670. 5685800. 64100. o
-2 11 5 71124. 112945. 53888. <
-10 12 5 1140960. 1080470. 56537. o
-7 12 5 149155. 143862. 56045. <
-4 12 5 1398150. 1411840. 54604. o
-1 12 5 407047. 441462. 52954. o
-12 13 5 158101. 172869. 55521. o
-9 13 5 223201. 227074. 58273. o
-6 13 5 164502. 207212. 51925. o
-3 13 5 257307. 266742. 55962. o
0 13 5 2898. 51642. 72224. <
-14 14 5 72482. 138207. 83036. <
-11 14 5 33169. 60047. 55981. <
-8 14 5 6343. 32905. 53486. <
-5 14 5 281586. 301871. 52493. o
-2 14 5 877487. 838355. 57110. o
-13 15 5 219458. 234153. 58724. o
-10 15 5 77675. 132823. 55027. <
-7 15 5 740822. 732493. 57498. o
-4 15 5 3378130. 3279860. 58761. o
-1 15 5 510247. 586503. 60661. o
-15 16 5 1561. 31730. 53684. <
-12 16 5 27037. 45844. 53523. <
-9 16 5 420921. 430966. 54291. o
-6 16 5 437006. 448981. 55160. o
-3 16 5 397. 63387. 56593. <
0 16 5 48487. 90208. 85708. <
-17 17 5 502543. 502544. 84125. o
-14 17 5 561. 36464. 56051. <
-11 17 5 39472. 64746. 57933. <
-8 17 5 21. 33067. 56593. <
-5 17 5 427862. 422644. 59063. o
-2 17 5 2280970. 2361530. 67815. o
-16 18 5 42349. 72859. 56939. <
-13 18 5 50421. 81751. 58566. <
-10 18 5 74320. 82964. 58857. <
-7 18 5 1247830. 1238280. 63355. o
-4 18 5 380695. 369104. 59673. o
-1 18 5 139996. 184662. 66434. <
-18 19 5 514510. 541084. 57348. o
-15 19 5 12778. 23996. 58636. <
-12 19 5 65791. 74632. 57610. <
-9 19 5 250776. 245291. 61978. o
-6 19 5 8174. -6632. 62503. <
-3 19 5 94425. 89091. 66954. <
0 19 5 1963220. 2073000. 109406. o
-20 20 5 5955. 22948. 83824. <
-17 20 5 255098. 285087. 61760. o
-14 20 5 938328. 925757. 60469. o
-11 20 5 44071. 89430. 58999. <
-8 20 5 23571. 102564. 63028. <
-5 20 5 13083. 43295. 68068. <
-2 20 5 193846. 198100. 72907. <
-19 21 5 179. 37277. 61526. <
-16 21 5 685537. 681103. 67955. o
-13 21 5 34830. 81333. 65052. <
-10 21 5 511280. 495886. 66894. o
-7 21 5 211767. 235354. 65083. o
-4 21 5 39377. 90477. 80087. <
-1 21 5 1273810. 1320580. 77945. o
-21 22 5 177069. 198925. 62441. o
-18 22 5 991700. 1052830. 64809. o
-15 22 5 101854. 131053. 66159. <
-12 22 5 23292. 87169. 63949. <
-9 22 5 233279. 271271. 72440. o
-6 22 5 1072740. 1097020. 71835. o
-3 22 5 15459. 70851. 80392. <
0 22 5 251. -35579. 115337. <
-23 23 5 96992. 234021. 93030. <
-20 23 5 703176. 740608. 67537. o
-17 23 5 358119. 401378. 64658. o
-14 23 5 14694. 8095. 64057. <
-11 23 5 2429450. 2375540. 73766. o
-8 23 5 1010650. 1044400. 75465. o
-5 23 5 578225. 619386. 81957. o
-2 23 5 97579. 102373. 83073. <
-22 24 5 96615. 132497. 65634. <
-19 24 5 184427. 246439. 68730. o
-16 24 5 71307. 87787. 65777. <
-13 24 5 131050. 175766. 69594. <
-10 24 5 2313680. 2265880. 81957. o
-7 24 5 53755. 83539. 90460. <
-4 24 5 639368. 749956. 87366. o
-1 24 5 505737. 632140. 82057. o
-24 25 5 18893. 60714. 68014. <
-21 25 5 9633. 57317. 66044. <
-18 25 5 541474. 589558. 67887. o
-15 25 5 697289. 692106. 66054. o
-12 25 5 462656. 519410. 77427. o
-9 25 5 128433. 220529. 89202. <
-6 25 5 4756. 26436. 93437. <
-3 25 5 67452. 56109. 90534. <
0 25 5 546. 18738. 133352. <
-26 26 5 14212. 31712. 98263. <
-23 26 5 19529. 43024. 65665. <
-20 26 5 244417. 265845. 68065. o
-17 26 5 58172. 115795. 72589. <
-14 26 5 106061. 148618. 74165. <
-11 26 5 28844. 75388. 80646. <
-8 26 5 431504. 504022. 105732. o
-5 26 5 435515. 508522. 97182. o
-2 26 5 404260. 364019. 91321. o
-25 27 5 256344. 233548. 71463. o
-22 27 5 674414. 719256. 73264. o
-19 27 5 539236. 528657. 63800. o
-16 27 5 116. 80608. 74374. <
-13 27 5 120. 45083. 83715. <
-10 27 5 62238. 82148. 102965. <
-7 27 5 31676. 112503. 104824. <
-4 27 5 108998. 222258. 101651. <
-1 27 5 4935. 70073. 98605. <
-27 28 5 25612. 39248. 72912. <
-24 28 5 58543. 106633. 69318. <
-21 28 5 390538. 380843. 69267. o
-18 28 5 62400. 112037. 78588. <
-15 28 5 719694. 670616. 80192. o
-12 28 5 4558. 72043. 90311. <
-9 28 5 11829. 135088. 123036. <
-6 28 5 365455. 446050. 106374. o
-3 28 5 2110. -20744. 98298. <
-26 29 5 6807. 75530. 71013. <
-23 29 5 990176. 873582. 72307. o
-20 29 5 320244. 359091. 70582. o
-17 29 5 105173. 137178. 81230. <
-14 29 5 15622. -12287. 91324. <
-11 29 5 32883. 97252. 101842. <
-8 29 5 167291. 179240. 106120. <
-5 29 5 100505. 95867. 105716. <
-22 30 5 584253. 531849. 71430. o
-19 30 5 75309. 123693. 88130. <
-16 30 5 94261. 140014. 85909. <
-13 30 5 133211. 159355. 112170. <
-10 30 5 79101. 43876. 114695. <
-7 30 5 83338. 131700. 102877. <
-21 31 5 11988. 44596. 74501. <
-18 31 5 271895. 267294. 85526. o
-15 31 5 288534. 293922. 87443. o
-12 31 5 251760. 272820. 129099. <
-9 31 5 31748. 121249. 87892. <
-1 1 7 549877. 566822. 72559. o
0 2 7 4882470. 4894610. 85920. o
-2 3 7 126719. 168558. 49644. o
-4 4 7 738354. 740392. 73678. o
-1 4 7 187843. 177643. 52304. o
-3 5 7 67863. 89071. 51899. <
0 5 7 19764. 53035. 75261. <
-5 6 7 686324. 698385. 52424. o
-2 6 7 35721. 74431. 51662. <
-7 7 7 1032190. 1030590. 77770. o
-4 7 7 777765. 770091. 55395. o
-1 7 7 595. 43511. 53955. <
-6 8 7 87058. 120968. 57159. <
-3 8 7 181638. 221196. 54852. o
0 8 7 1279. 26418. 78295. <
-8 9 7 922504. 904368. 57320. o
-5 9 7 664688. 691538. 57991. o
-2 9 7 59009. 82040. 55368. <
-10 10 7 581439. 578347. 77819. o
-7 10 7 100523. 119596. 56256. <
-4 10 7 523382. 556585. 57132. o
-1 10 7 616826. 640572. 61694. o
-9 11 7 85691. 134449. 56237. <
-6 11 7 512. 40945. 61526. <
-3 11 7 1354250. 1316670. 57020. o
0 11 7 2647290. 2541220. 87647. o
-11 12 7 360981. 368791. 56886. o
-8 12 7 349. 15702. 61472. <
-5 12 7 46064. 85075. 56614. <
-2 12 7 406792. 421704. 59347. o
-13 13 7 4281. -9667. 89119. <
-10 13 7 23788. 50740. 59938. <
-7 13 7 245434. 264062. 62518. o
-4 13 7 29. 21990. 60948. <
-1 13 7 57930. 125933. 56308. <
-12 14 7 117723. 147988. 60124. <
-9 14 7 9475. 28622. 61888. <
-6 14 7 887254. 909061. 61764. o
-3 14 7 120075. 150482. 58787. <
0 14 7 93724. 77326. 79531. <
-14 15 7 76210. 129838. 60519. <
-11 15 7 28754. -2006. 59414. <
-8 15 7 131179. 152526. 64842. <
-5 15 7 212161. 229441. 67269. o
-2 15 7 51272. 81082. 61927. <
-16 16 7 40362. -16173. 95753. <
-13 16 7 6536. 55275. 64635. <
-10 16 7 43152. 60878. 61872. <
-7 16 7 320101. 323167. 62902. o
-4 16 7 174343. 252148. 63471. o
-1 16 7 620894. 652922. 72322. o
-15 17 7 33993. 29617. 66317. <
-12 17 7 429650. 445944. 66976. o
-9 17 7 940857. 957584. 69904. o
-6 17 7 109106. 170142. 63683. <
-3 17 7 486011. 531187. 64972. o
0 17 7 201466. 241743. 98570. <
-17 18 7 62628. 96984. 66282. <
-14 18 7 2710. 53178. 64273. <
-11 18 7 669076. 687324. 68148. o
-8 18 7 1579240. 1568060. 68318. o
-5 18 7 478520. 477382. 57723. o
-2 18 7 6009. 51878. 74934. <
-19 19 7 1041. 44559. 98731. <
-16 19 7 72061. 81625. 70765. <
-13 19 7 241824. 275424. 68409. o
-10 19 7 863. 38434. 65086. <
-7 19 7 177660. 215262. 64139. o
-4 19 7 46136. 116571. 62722. <
-1 19 7 237810. 258938. 78132. o
-18 20 7 424372. 372739. 71945. o
-15 20 7 53591. 101645. 62740. <
-12 20 7 65275. 135944. 69752. <
-9 20 7 121487. 195913. 69684. <
-6 20 7 23537. 109702. 66154. <
-3 20 7 243002. 264958. 76017. o
0 20 7 361298. 328377. 117762. <
-20 21 7 180789. 177597. 77856. <
-17 21 7 19162. 39012. 71502. <
-14 21 7 796. 70778. 73669. <
-11 21 7 30232. 19823. 67636. <
-8 21 7 297674. 309218. 67635. o
-5 21 7 35564. 42934. 76653. <
-2 21 7 24508. 44542. 84223. <
-22 22 7 112419. 109891. 107741. <
-19 22 7 33341. 57065. 71557. <
-16 22 7 52. 57515. 74753. <
-13 22 7 260. 90076. 71717. <
-10 22 7 165588. 187499. 71728. <
-7 22 7 39076. 28207. 70726. <
-4 22 7 177708. 236567. 77549. o
-1 22 7 261673. 296626. 96586. o
-21 23 7 938. 35796. 73669. <
-18 23 7 640074. 586769. 71344. o
-15 23 7 168409. 258613. 76988. o
-12 23 7 49221. 88038. 72552. <
-9 23 7 31730. 59540. 72189. <
-6 23 7 1779740. 1650240. 85772. o
-3 23 7 3420. 75024. 95515. <
-20 24 7 1503. 81005. 72964. <
-17 24 7 505602. 473149. 72058. o
-14 24 7 11255. -325. 72766. <
-11 24 7 266588. 255419. 74356. o
-8 24 7 561330. 576078. 80703. o
-5 24 7 182874. 200351. 90850. <
-16 25 7 83671. 72301. 76096. <
-13 25 7 1602. 27773. 79036. <
-10 25 7 6395. 39157. 81042. <
-7 25 7 134668. 225082. 91189. <
0 1 8 21950. 63299. 77917. <
-2 2 8 17194. 56124. 75838. <
-1 3 8 11135. 19515. 55853. <
-3 4 8 107756. 145059. 55479. <
0 4 8 28880. 42338. 80248. <
-5 5 8 115960. 118802. 81466. <
-2 5 8 47860. 57228. 56000. <
-4 6 8 74545. 124959. 57989. <
-1 6 8 88043. 120064. 57448. <
-6 7 8 109929. 150607. 59166. <
-3 7 8 29784. 63028. 59811. <
0 7 8 452662. 505250. 83609. o
-8 8 8 1255. 21828. 90040. <
-5 8 8 169014. 171489. 57705. <
-2 8 8 833466. 869682. 61288. o
-7 9 8 542427. 542717. 62409. o
-4 9 8 60244. 106833. 61837. <
-1 9 8 521024. 558108. 62281. o
-9 10 8 89802. 140682. 66953. <
-6 10 8 17403. 50830. 64346. <
-3 10 8 1548910. 1511700. 67556. o
0 10 8 1397330. 1384220. 89150. o
-11 11 8 2497660. 2488940. 96489. o
-8 11 8 1251790. 1239420. 67861. o
-5 11 8 19588. 43946. 65178. <
-2 11 8 169364. 161260. 63326. <
-10 12 8 353147. 368777. 67368. o
-7 12 8 116236. 155215. 67045. <
-4 12 8 12218. 43548. 65936. <
-1 12 8 169356. 187681. 62675. <
-12 13 8 94. 23834. 70145. <
-9 13 8 9018. 61111. 71953. <
-6 13 8 71624. 54537. 67693. <
-3 13 8 1577. 42861. 61382. <
0 13 8 75340. 108478. 87715. <
-14 14 8 1048010. 1055320. 107565. o
-11 14 8 60389. 81624. 71830. <
-8 14 8 178088. 213400. 68025. o
-5 14 8 15467. 52872. 72640. <
-2 14 8 9556. 63189. 63460. <
-13 15 8 106232. 114698. 77634. <
-10 15 8 81718. 158481. 70223. <
-7 15 8 8105. 47812. 70760. <
-4 15 8 118. 56918. 65773. <
-1 15 8 334. 37837. 75675. <
-15 16 8 594859. 576171. 80580. o
-12 16 8 32244. 37947. 72370. <
-9 16 8 249101. 232101. 69258. o
-6 16 8 453696. 457441. 65710. o
-3 16 8 90545. 76024. 72880. <
0 16 8 1329270. 1236890. 110612. o
-17 17 8 1568310. 1395460. 121999. o
-14 17 8 104471. 128323. 74742. <
-11 17 8 7287. 47414. 75892. <
-8 17 8 1113700. 1077080. 71322. o
-5 17 8 39946. 65179. 71088. <
-2 17 8 95016. 101631. 78067. <
-16 18 8 556999. 592183. 74412. o
-13 18 8 23206. 71448. 71394. <
-10 18 8 54795. 73474. 70709. <
-7 18 8 43485. 37224. 64799. <
-4 18 8 175058. 220970. 73374. o
-1 18 8 21192. 116640. 80916. <
-18 19 8 43165. 81659. 81008. <
-15 19 8 41362. 126075. 74557. <
-12 19 8 139707. 182325. 72956. <
-9 19 8 1405410. 1286400. 79898. o
-6 19 8 83255. 141295. 74650. <
-3 19 8 268915. 277397. 79489. o
-14 20 8 49594. 66860. 68667. <
-11 20 8 475508. 471780. 81185. o
-8 20 8 27106. 5927. 74936. <
-5 20 8 142324. 162609. 86238. <
-13 21 8 662. 14871. 74789. <
-10 21 8 13087. 38488. 78422. <
-7 21 8 94857. 137231. 79295. <
