#------------------------------------------------------------------------------
#$Date: 2016-02-16 14:49:47 +0200 (Tue, 16 Feb 2016) $
#$Revision: 176465 $
#$URL: svn://www.crystallography.net/cod/cif/9/00/71/9007167.cif $
#------------------------------------------------------------------------------
#
# This file is available in the Crystallography Open Database (COD),
# http://www.crystallography.net/. The original data for this entry
# were provided the American Mineralogist Crystal Structure Database,
# http://rruff.geo.arizona.edu/AMS/amcsd.php
#
# The file may be used within the scientific community so long as
# proper attribution is given to the journal article from which the
# data were obtained.
#
data_9007167
loop_
_publ_author_name
'Angel, R. J.'
'Shaw, C. S. J.'
'Gibbs, G. V.'
_publ_section_title
;
 Compression mechanisms of coesite
 Sample: X4P3, P = 5.01 GPa
;
_journal_name_full               'Physics and Chemistry of Minerals'
_journal_page_first              167
_journal_page_last               176
_journal_paper_doi               10.1007/s00269-003-0303-9
_journal_volume                  30
_journal_year                    2003
_chemical_formula_sum            'O2 Si'
_chemical_name_mineral           Coesite
_space_group_IT_number           15
_symmetry_space_group_name_Hall  '-C 2yc'
_symmetry_space_group_name_H-M   'C 1 2/c 1'
_cell_angle_alpha                90
_cell_angle_beta                 120.746
_cell_angle_gamma                90
_cell_length_a                   6.9862
_cell_length_b                   12.2311
_cell_length_c                   7.1101
_cell_volume                     522.154
_diffrn_ambient_pressure         5.01e+06
_exptl_crystal_density_diffrn    3.057
_cod_original_formula_sum        'Si O2'
_cod_database_code               9007167
loop_
_symmetry_equiv_pos_as_xyz
x,y,z
1/2+x,1/2+y,z
x,-y,1/2+z
1/2+x,1/2-y,1/2+z
-x,y,1/2-z
1/2-x,1/2+y,1/2-z
-x,-y,-z
1/2-x,1/2-y,-z
loop_
_atom_site_aniso_label
_atom_site_aniso_U_11
_atom_site_aniso_U_22
_atom_site_aniso_U_33
_atom_site_aniso_U_12
_atom_site_aniso_U_13
_atom_site_aniso_U_23
Si1 0.00530 0.00485 0.00435 -0.00093 0.00279 -0.00102
Si2 0.00676 0.00591 0.00378 -0.00019 0.00335 -0.00030
O1 0.01278 0.00227 0.01173 -0.00074 0.00743 0.00038
O2 0.00913 0.00985 0.00492 0.00000 0.00576 0.00000
O3 0.01242 0.00872 0.00984 -0.00190 0.00836 -0.00076
O4 0.01260 0.01031 0.00681 -0.00112 0.00409 -0.00163
O5 0.00858 0.00682 0.01286 0.00026 0.00743 0.00159
loop_
_atom_site_label
_atom_site_fract_x
_atom_site_fract_y
_atom_site_fract_z
_atom_site_U_iso_or_equiv
Si1 0.13687 0.11026 0.07002 0.00469
Si2 0.50836 0.15706 0.54447 0.00513
O1 0.00000 0.00000 0.00000 0.00849
O2 0.50000 0.10930 0.75000 0.00709
O3 0.25230 0.13006 0.92780 0.00912
O4 0.31890 0.10058 0.32520 0.01026
O5 0.02670 0.21270 0.47070 0.00861
