#------------------------------------------------------------------------------
#$Date: 2016-02-16 14:49:47 +0200 (Tue, 16 Feb 2016) $
#$Revision: 176465 $
#$URL: svn://www.crystallography.net/cod/cif/9/00/71/9007165.cif $
#------------------------------------------------------------------------------
#
# This file is available in the Crystallography Open Database (COD),
# http://www.crystallography.net/. The original data for this entry
# were provided the American Mineralogist Crystal Structure Database,
# http://rruff.geo.arizona.edu/AMS/amcsd.php
#
# The file may be used within the scientific community so long as
# proper attribution is given to the journal article from which the
# data were obtained.
#
data_9007165
loop_
_publ_author_name
'Angel, R. J.'
'Shaw, C. S. J.'
'Gibbs, G. V.'
_publ_section_title
;
 Compression mechanisms of coesite
 Sample: X1P3, P = 3.763 GPa
;
_journal_name_full               'Physics and Chemistry of Minerals'
_journal_page_first              167
_journal_page_last               176
_journal_paper_doi               10.1007/s00269-003-0303-9
_journal_volume                  30
_journal_year                    2003
_chemical_formula_sum            'O2 Si'
_chemical_name_mineral           Coesite
_space_group_IT_number           15
_symmetry_space_group_name_Hall  '-C 2yc'
_symmetry_space_group_name_H-M   'C 1 2/c 1'
_cell_angle_alpha                90
_cell_angle_beta                 120.670
_cell_angle_gamma                90
_cell_length_a                   7.0203
_cell_length_b                   12.2615
_cell_length_c                   7.1260
_cell_volume                     527.599
_diffrn_ambient_pressure         3.763e+06
_exptl_crystal_density_diffrn    3.026
_cod_original_formula_sum        'Si O2'
_cod_database_code               9007165
loop_
_symmetry_equiv_pos_as_xyz
x,y,z
1/2+x,1/2+y,z
x,-y,1/2+z
1/2+x,1/2-y,1/2+z
-x,y,1/2-z
1/2-x,1/2+y,1/2-z
-x,-y,-z
1/2-x,1/2-y,-z
loop_
_atom_site_aniso_label
_atom_site_aniso_U_11
_atom_site_aniso_U_22
_atom_site_aniso_U_33
_atom_site_aniso_U_12
_atom_site_aniso_U_13
_atom_site_aniso_U_23
Si1 0.00654 0.00625 0.00514 -0.00094 0.00332 -0.00053
Si2 0.00648 0.00457 0.00533 -0.00083 0.00321 -0.00042
O1 0.00997 0.00533 0.01161 -0.00338 0.00394 0.00000
O2 0.01034 0.00914 0.00609 0.00000 0.00619 0.00000
O3 0.00961 0.00838 0.00952 0.00000 0.00562 0.00038
O4 0.01108 0.00685 0.00723 -0.00113 0.00206 -0.00267
O5 0.00905 0.00305 0.01370 -0.00113 0.00600 0.00038
loop_
_atom_site_label
_atom_site_fract_x
_atom_site_fract_y
_atom_site_fract_z
_atom_site_U_iso_or_equiv
Si1 0.13760 0.10979 0.07067 0.00583
Si2 0.50850 0.15724 0.54405 0.00532
O1 0.00000 0.00000 0.00000 0.00975
O2 0.50000 0.11080 0.75000 0.00773
O3 0.25580 0.12881 0.93090 0.00899
O4 0.31740 0.10110 0.32620 0.00925
O5 0.02530 0.21200 0.47210 0.00849
