#------------------------------------------------------------------------------
#$Date: 2016-02-16 14:49:47 +0200 (Tue, 16 Feb 2016) $
#$Revision: 176465 $
#$URL: svn://www.crystallography.net/cod/cif/9/00/70/9007048.cif $
#------------------------------------------------------------------------------
#
# This file is available in the Crystallography Open Database (COD),
# http://www.crystallography.net/. The original data for this entry
# were provided the American Mineralogist Crystal Structure Database,
# http://rruff.geo.arizona.edu/AMS/amcsd.php
#
# The file may be used within the scientific community so long as
# proper attribution is given to the journal article from which the
# data were obtained.
#
data_9007048
loop_
_publ_author_name
'Kyono, A.'
'Kimata, M.'
'Matsuhisa, M.'
'Miyashita, Y.'
'Okamoto, K.'
_publ_section_title
;
 Low-temperature crystal structures of stibnite implying orbital
 overlap of Sb 5s2 inert pair electrons
 Sample: T = 128 K
;
_journal_name_full               'Physics and Chemistry of Minerals'
_journal_page_first              254
_journal_page_last               260
_journal_paper_doi               10.1007/s00269-001-0227-1
_journal_volume                  29
_journal_year                    2002
_chemical_formula_sum            'S3 Sb2'
_chemical_name_mineral           Stibnite
_space_group_IT_number           62
_symmetry_space_group_name_Hall  '-P 2ac 2n'
_symmetry_space_group_name_H-M   'P n m a'
_cell_angle_alpha                90
_cell_angle_beta                 90
_cell_angle_gamma                90
_cell_length_a                   11.292
_cell_length_b                   3.828
_cell_length_c                   11.205
_cell_volume                     484.345
_diffrn_ambient_temperature      128
_exptl_crystal_density_diffrn    4.659
_cod_original_formula_sum        'Sb2 S3'
_cod_database_code               9007048
loop_
_symmetry_equiv_pos_as_xyz
x,y,z
x,1/2-y,z
-x,1/2+y,-z
1/2-x,1/2+y,1/2+z
1/2+x,1/2-y,1/2-z
1/2+x,y,1/2-z
1/2-x,-y,1/2+z
-x,-y,-z
loop_
_atom_site_label
_atom_site_fract_x
_atom_site_fract_y
_atom_site_fract_z
_atom_site_U_iso_or_equiv
Sb1 0.47071 0.25000 0.32575 0.00716
Sb2 0.35057 0.75000 0.03533 0.00926
S1 0.29230 0.25000 0.19140 0.00785
S2 0.54970 0.75000 0.12260 0.00747
S3 0.37480 0.75000 0.43870 0.00760
