#------------------------------------------------------------------------------
#$Date: 2016-11-13 17:22:27 +0200 (Sun, 13 Nov 2016) $
#$Revision: 188410 $
#$URL: file:///home/coder/svn-repositories/cod/cif/9/00/76/9007665.cif $
#------------------------------------------------------------------------------
#
# This file is available in the Crystallography Open Database (COD),
# http://www.crystallography.net/. The original data for this entry
# were provided the American Mineralogist Crystal Structure Database,
# http://rruff.geo.arizona.edu/AMS/amcsd.php
#
# The file may be used within the scientific community so long as
# proper attribution is given to the journal article from which the
# data were obtained.
#
data_9007665
loop_
_publ_author_name
'Lyman, P. S.'
'Prewitt, C. T.'
_publ_section_title
;
 Room- and high-pressure crystal chemistry of CoAs and FeAs
 Locality: synthetic
 Note: anisoB's taken from ICSD
 Sample: P = 3.70 GPa
;
_journal_issue                   1
_journal_name_full               'Acta Crystallographica, Section B'
_journal_page_first              14
_journal_page_last               20
_journal_paper_doi               10.1107/S0108768184001695
_journal_volume                  40
_journal_year                    1984
_chemical_formula_sum            'As Co'
_chemical_name_mineral           Modderite
_space_group_IT_number           62
_symmetry_space_group_name_Hall  '-P 2c 2n'
_symmetry_space_group_name_H-M   'P n a m'
_cell_angle_alpha                90
_cell_angle_beta                 90
_cell_angle_gamma                90
_cell_length_a                   5.2631
_cell_length_b                   5.801
_cell_length_c                   3.4569
_cell_volume                     105.543
_diffrn_ambient_pressure         3.7e+06
_exptl_crystal_density_diffrn    8.424
_cod_original_formula_sum        'Co As'
_cod_database_code               9007665
loop_
_symmetry_equiv_pos_as_xyz
x,y,z
x,y,1/2-z
-x,-y,1/2+z
1/2-x,1/2+y,1/2+z
1/2+x,1/2-y,1/2-z
1/2+x,1/2-y,z
1/2-x,1/2+y,-z
-x,-y,-z
loop_
_atom_site_aniso_label
_atom_site_aniso_U_11
_atom_site_aniso_U_22
_atom_site_aniso_U_33
_atom_site_aniso_U_12
_atom_site_aniso_U_13
_atom_site_aniso_U_23
Co 0.01123 0.00682 0.01150 -0.00077 0.00000 0.00000
As 0.01123 0.02046 0.00787 0.00062 0.00000 0.00000
loop_
_atom_site_label
_atom_site_fract_x
_atom_site_fract_y
_atom_site_fract_z
Co 0.00260 0.19870 0.25000
As 0.19740 0.58630 0.25000
