#------------------------------------------------------------------------------
#$Date: 2015-08-05 20:51:36 +0300 (Wed, 05 Aug 2015) $
#$Revision: 152811 $
#$URL: svn://www.crystallography.net/cod/cif/4/34/39/4343959.cif $
#------------------------------------------------------------------------------
#
# This file is available in the Crystallography Open Database (COD),
# http://www.crystallography.net/
#
# All data on this site have been placed in the public domain by the
# contributors.
#
data_4343959
loop_
_publ_author_name
'Nishikawa, Takuya'
'Fukuoka, Hiroshi'
'Inumaru, Kei'
_publ_section_title
;
 High-Pressure Synthesis and Electronic Structure of a New Superconducting
 Strontium Germanide (SrGe3) Containing Ge2 Dumbbells.
;
_journal_issue                   15
_journal_name_full               'Inorganic chemistry'
_journal_page_first              7433
_journal_page_last               7437
_journal_paper_doi               10.1021/acs.inorgchem.5b00989
_journal_volume                  54
_journal_year                    2015
_chemical_formula_sum            'Ge3 Sr'
_chemical_formula_weight         305.39
_space_group_crystal_system      tetragonal
_space_group_IT_number           139
_space_group_name_Hall           '-I 4 2'
_space_group_name_H-M_alt        'I 4/m m m'
_symmetry_space_group_name_Hall  '-I 4 2'
_symmetry_space_group_name_H-M   'I 4/m m m'
_audit_creation_method           SHELXL-2014/6
_cell_angle_alpha                90
_cell_angle_beta                 90
_cell_angle_gamma                90
_cell_formula_units_Z            8
_cell_length_a                   7.7800(8)
_cell_length_b                   7.7800(8)
_cell_length_c                   12.0561(13)
_cell_measurement_temperature    296(2)
_cell_volume                     729.74(13)
_computing_structure_refinement  'SHELXL-2014/6 (Sheldrick, 2014)'
_diffrn_ambient_temperature      296
_diffrn_detector_area_resol_mean 8.333
_diffrn_measured_fraction_theta_full 0.996
_diffrn_measured_fraction_theta_max 0.996
_diffrn_measurement_device_type  'Bruker APEX-II CCD'
_diffrn_radiation_type           MoK\a
_diffrn_radiation_wavelength     0.71073
_diffrn_reflns_av_R_equivalents  0.0156
_diffrn_reflns_av_unetI/netI     0.0096
_diffrn_reflns_laue_measured_fraction_full 0.996
_diffrn_reflns_laue_measured_fraction_max 0.996
_diffrn_reflns_limit_h_max       10
_diffrn_reflns_limit_h_min       -8
_diffrn_reflns_limit_k_max       6
_diffrn_reflns_limit_k_min       -10
_diffrn_reflns_limit_l_max       15
_diffrn_reflns_limit_l_min       -14
_diffrn_reflns_number            2082
_diffrn_reflns_point_group_measured_fraction_full 0.996
_diffrn_reflns_point_group_measured_fraction_max 0.996
_diffrn_reflns_theta_full        25.242
_diffrn_reflns_theta_max         27.423
_diffrn_reflns_theta_min         3.116
_exptl_absorpt_coefficient_mu    38.743
_exptl_absorpt_correction_T_max  1.0
_exptl_absorpt_correction_T_min  0.634
_exptl_absorpt_correction_type   multi-scan
_exptl_absorpt_process_details   'SADABS Sheldrick 1996'
_exptl_crystal_colour            black
_exptl_crystal_density_diffrn    5.559
_exptl_crystal_description       chunk
_exptl_crystal_F_000             1072
_exptl_crystal_size_max          0.75
_exptl_crystal_size_mid          0.05
_exptl_crystal_size_min          0.05
_refine_diff_density_max         2.462
_refine_diff_density_min         -0.325
_refine_diff_density_rms         0.102
_refine_ls_extinction_method     none
_refine_ls_goodness_of_fit_ref   1.173
_refine_ls_hydrogen_treatment    undef
_refine_ls_matrix_type           full
_refine_ls_number_parameters     16
_refine_ls_number_reflns         280
_refine_ls_number_restraints     0
_refine_ls_restrained_S_all      1.173
_refine_ls_R_factor_all          0.0117
_refine_ls_R_factor_gt           0.0110
_refine_ls_shift/su_max          0.000
_refine_ls_shift/su_mean         0.000
_refine_ls_structure_factor_coef Fsqd
_refine_ls_weighting_details
'w=1/[\s^2^(Fo^2^)+(0.0094P)^2^+2.5464P] where P=(Fo^2^+2Fc^2^)/3'
_refine_ls_weighting_scheme      calc
_refine_ls_wR_factor_gt          0.0258
_refine_ls_wR_factor_ref         0.0262
_reflns_Friedel_coverage         0.000
_reflns_number_gt                270
_reflns_number_total             280
_reflns_threshold_expression     'I > 2\s(I)'
_cod_data_source_file            ic5b00989_si_001.cif
_cod_data_source_block           20150223SG134_0m_a
_cod_depositor_comments          'Adding full bibliography for 4343959.cif.'
_cod_original_cell_volume        729.74(17)
_cod_database_code               4343959
_shelx_space_group_comment
;
The symmetry employed for this shelxl refinement is uniquely defined
by the following loop, which should always be used as a source of
symmetry information in preference to the above space-group names.
They are only intended as comments.
;
_shelxl_version_number           2014/6
_shelx_res_file
;
TITL 20150223SG134_0m_a.res in I4/mmm
CELL  0.71073   7.7800   7.7800  12.0561   90.000   90.000   90.000
ZERR    8.000   0.0008   0.0008   0.0013    0.000    0.000    0.000
LATT 2
SYMM -X, -Y, Z
SYMM -Y, X, Z
SYMM Y, -X, Z
SYMM -X, Y, -Z
SYMM X, -Y, -Z
SYMM Y, X, -Z
SYMM -Y, -X, -Z
SFAC Ge Sr
UNIT 24  8
REM Old TITL 20150223SG134_0m in I4/mmm
REM SHELXT solution in I4/mmm
REM R1 0.042,  Rweak 0.007,  Alpha 0.013,  Orientation as input
REM Formula found by SHELXT:  Ge3 Sr
L.S. 20
ACTA
BOND $H
FMAP 2
PLAN 5
TEMP 23.000
WGHT    0.009400    2.546400
FVAR       0.18195
SR01  2    0.500000    0.500000    0.328937    10.12500    0.01262    0.01262 =
         0.01054    0.00000    0.00000    0.00000
SR02  2    0.500000    1.000000    0.750000    10.12500    0.01153    0.01153 =
         0.00873    0.00000    0.00000    0.00000
Ge01  1    0.500000    0.837240    0.500000    10.25000    0.01106    0.01063 =
         0.01087    0.00000    0.00000    0.00000
Ge02  1    0.182719    0.817281    0.394527    10.50000    0.01837    0.01837 =
         0.01425    0.00184   -0.00184   -0.00537
HKLF 4

REM  20150223SG134_0m_a.res in I4/mmm
REM R1 =  0.0110 for     270 Fo > 4sig(Fo)  and  0.0117 for all     280 data
REM     16 parameters refined using      0 restraints

END

WGHT      0.0094      2.5464

REM Highest difference peak  2.462,  deepest hole -0.325,  1-sigma level  0.102
Q1    1   0.0000  1.0000  0.5000  10.06250  0.05    2.46
Q2    1   0.2341  0.7659  0.4323  10.50000  0.05    0.32
Q3    1   0.4689  1.0000  0.5000  10.25000  0.05    0.32
Q4    1   0.2211  1.0000  0.3967  10.50000  0.05    0.26
Q5    1   0.1091  0.8604  0.4161  11.00000  0.05    0.24
;
_shelx_res_checksum              3193
_shelx_hkl_file
;
   1  -1   0   58.09    1.20
   1  -1   0   55.89    1.30
   1   1   0   58.09    1.40
  -1  -1   0   55.89    1.50
  -1  -1   0   56.89    1.20
   0  -2   0   12.00    0.70
   2   0   0   12.40    0.50
  -2  -2   0 3524.25   54.19
   2   2   0 3356.86   55.09
   2  -2   0 3456.85   54.99
   2  -2   0 3337.17   54.19
  -2  -2   0 3293.57   54.49
   3   1   0  371.66    6.80
   1  -3   0  366.16    6.50
  -3  -1   0  356.96    7.00
   3  -1   0  373.96    6.40
  -1  -3   0  362.46    6.70
  -1  -3   0  380.86    6.50
   1   3   0  373.46    6.40
   3  -1   0  378.26    6.80
   3   3   0 7057.59  121.59
   3  -3   0 7411.46  119.39
  -3  -3   0 7785.82  118.89
  -3  -3   0 7444.65  120.79
   3  -3   0 7564.94  119.99
   2  -4   0  465.85    8.40
   2  -4   0  462.75    7.70
  -4  -2   0  456.85    9.10
   4   2   0  451.05    8.80
   4   0   0 1284.47   21.50
   0  -4   0 1259.07   21.00
   4   0   0 1285.07   20.60
   4  -2   0  464.65    8.30
  -2  -4   0  456.05    8.50
   2   4   0  437.76    8.20
  -2  -4   0  462.85    8.00
   4  -2   0  466.75    8.20
  -4  -4   0  277.47    6.50
   4  -4   0  295.97    5.50
   4  -4   0  284.17    5.90
   4   4   0  285.27    6.30
   5   3   0  942.01   17.00
  -5  -3   0  940.21   17.30
   3  -5   0  933.11   16.40
   1  -5   0   30.30    1.70
   5   1   0   28.30    2.20
  -1  -5   0   24.30    1.60
  -1  -5   0   27.30    1.60
   5  -1   0   25.80    2.00
   5  -1   0   33.60    1.50
  -3  -5   0  936.71   16.80
  -3  -5   0  957.80   15.90
   5  -3   0  945.21   16.20
   5  -3   0  958.60   16.30
   3   5   0  923.31   16.30
   5   5   0  411.46    8.90
   5  -5   0  422.76    8.60
  -5  -5   0  409.26    9.30
   4  -6   0  480.45    9.70
   6   4   0  483.15   10.40
  -6  -4   0  482.55   10.60
   2  -6   0   96.89    3.30
   6   2   0   98.19    4.00
   6   0   0 8301.27  131.19
   0  -6   0 8043.29  130.39
  -2  -6   0   95.29    3.40
  -2  -6   0   96.29    3.00
   6  -2   0  100.09    3.00
   6  -2   0   96.29    3.40
   6  -4   0  498.85    9.90
  -4  -6   0  517.95   10.60
   6  -4   0  495.75    9.70
   6  -6   0 3255.27   53.89
  -6  -6   0 3250.57   54.89
   7   5   0  223.28    7.10
   5  -7   0  230.48    6.40
  -7  -5   0  240.68    7.40
   3  -7   0   71.49    3.50
   7   3   0   74.79    4.40
   1  -7   0  213.78    5.30
   7   1   0  207.58    6.10
  -1  -7   0  223.38    5.40
   7  -1   0  219.18    5.90
  -1  -7   0  221.48    5.20
  -3  -7   0   71.29    3.70
   7  -3   0   81.59    3.60
  -5  -7   0  251.27    7.20
   7  -5   0  230.28    6.40
  -7  -7   0   24.90    3.80
   7  -7   0   22.00    3.10
   6  -8   0    9.90    2.90
   4  -8   0  167.98    5.60
   8   4   0  172.18    6.60
   8   2   0 1070.39   20.70
   2  -8   0 1115.89   19.70
   8   0   0   16.20    2.60
   0  -8   0   16.40    2.10
   0  -8   0   19.70    2.10
  -2  -8   0 1146.39   20.30
   8  -2   0 1100.99   20.50
  -4  -8   0  182.68    6.30
  -6  -8   0   11.60    3.30
   9   3   0  806.42   17.10
   3  -9   0  809.22   15.80
   1  -9   0   11.70    2.10
   1  -9   0   13.10    2.40
   9   1   0    7.40    2.80
   9  -1   0   12.60    2.80
  -1  -9   0   14.60    2.40
  -1  -9   0   12.20    2.30
   9  -3   0  801.82   16.30
  -3  -9   0  860.71   16.60
  10   0   0  719.93   16.00
   0 -10   0  769.42   14.90
   0  -1  -1   42.80    1.00
   0  -1  -1   45.50    1.10
  -1   0   1   44.90    1.10
   0  -1   1   45.20    0.90
   2   1  -1   55.39    1.60
   1  -2  -1   51.59    1.50
   1  -2  -1   55.19    1.30
  -2  -1  -1   51.69    1.80
  -2  -1   1   54.29    1.70
   1  -2   1   54.89    1.20
   2   1   1   56.69    1.70
   1  -2   1   52.49    1.40
  -1  -2  -1   52.79    1.50
   2  -1  -1   53.59    1.40
   1   2  -1   55.19    1.30
   2  -1  -1   54.99    1.40
  -1  -2  -1   55.69    1.50
  -1  -2   1   54.99    1.50
   1   2   1   53.89    1.50
   2  -1   1   53.39    1.30
   2  -1   1   51.79    1.50
  -1  -2   1   53.19    1.20
  -3  -2  -1  216.98    4.90
   2  -3  -1  222.68    4.00
   2  -3  -1  214.88    4.40
   3   2  -1  218.78    4.60
   3   2   1  210.88    4.60
   2  -3   1  222.18    4.30
  -3  -2   1  210.98    4.70
   2  -3   1  223.58    3.90
   3   0  -1 9900.21  159.88
   3   0  -1 9888.71  156.48
   0  -3  -1 9799.12  158.48
   3   0   1 9703.03  160.28
   0  -3   1 9603.04  157.78
   0   3   1 9999.00  156.68
  -2  -3  -1  221.38    4.20
   3  -2  -1  217.68    4.30
   2   3  -1  219.58    4.20
   3  -2  -1  228.88    4.30
  -2  -3  -1  212.18    4.60
  -2  -3   1  222.08    3.90
   3  -2   1  211.38    4.20
   3  -2   1  222.58    4.30
  -2  -3   1  214.08    4.50
   2   3   1  208.18    4.40
  -4  -3  -1   59.69    2.80
   3  -4  -1   57.39    1.70
   4   3  -1   56.39    2.50
   3  -4  -1   57.89    2.30
   4   3   1   56.49    2.60
   3  -4   1   57.09    2.20
   3  -4   1   61.09    1.70
  -4  -3   1   56.99    2.60
   1  -4  -1   52.49    1.90
   4   1   1   42.90    2.10
  -4  -1   1   37.60    2.20
   1  -4   1   41.20    1.60
   4  -1  -1   39.90    1.40
  -1  -4  -1   39.80    1.60
   4  -1  -1   40.80    1.80
  -1  -4  -1   39.40    1.60
   4  -1   1   40.70    1.80
  -1  -4   1   40.10    1.60
  -1  -4   1   41.10    1.40
   4  -1   1   36.80    1.40
   1   4   1   44.10    1.50
  -3  -4  -1   55.29    2.50
   4  -3  -1   61.29    2.10
   4  -3  -1   55.89    2.20
  -3  -4  -1   58.89    1.90
   3   4  -1   58.49    2.20
  -3  -4   1   59.79    2.50
   4  -3   1   60.99    2.10
   3   4   1   69.99    2.50
   4  -3   1   58.49    2.10
  -3  -4   1   59.99    1.70
   5   4  -1   11.90    1.90
  -5  -4  -1   14.50    2.20
   4  -5  -1   11.40    1.60
  -5  -4   1   11.00    1.90
   4  -5   1   11.50    1.50
   5   4   1   10.70    1.80
   5   2  -1  333.17    7.20
   2  -5  -1  346.37    6.90
   2  -5   1  340.57    6.70
  -5  -2   1  331.17    7.50
   5   2   1  337.07    7.30
   5   0  -1  432.06    7.30
   5   0  -1  431.56    8.30
   0  -5  -1  421.16    7.70
   0  -5  -1  410.76    7.90
   5   0   1  429.76    7.30
   0  -5   1  422.46    7.80
   5   0   1  417.36    8.40
  -2  -5  -1  339.87    6.50
   5  -2  -1  342.47    6.80
  -2  -5  -1  336.77    6.90
   5  -2  -1  345.37    6.60
   2   5   1  326.27    6.50
   5  -2   1  343.27    6.40
   5  -2   1  344.77    6.90
  -2  -5   1  346.37    6.40
  -2  -5   1  332.17    6.80
  -4  -5  -1   11.80    1.80
   4   5  -1   11.80    1.70
   5  -4  -1   13.20    1.60
   5  -4  -1   11.40    1.40
   5  -4   1   10.70    1.50
   5  -4   1   11.50    1.30
  -4  -5   1   10.30    1.80
   4   5   1   12.20    1.70
   5  -6  -1   50.69    3.30
  -6  -5  -1   50.39    4.10
   6   5  -1   50.69    3.80
   5  -6   1   49.99    3.20
   6   5   1   44.70    3.80
  -6  -5   1   42.40    3.40
   6   3  -1 2872.81   47.90
   3  -6  -1 2817.02   47.20
  -6  -3   1 2954.60   48.20
   6   3   1 2898.01   48.00
   3  -6   1 2811.12   47.10
   6   1  -1    1.90    1.50
   1  -6  -1    0.30    1.20
   6   1   1    0.70    1.50
   1  -6   1    1.60    1.10
  -1  -6  -1    0.70    1.10
  -1  -6  -1    1.10    1.10
   6  -1  -1   -0.10    1.20
  -1  -6   1    1.20    1.10
   6  -1   1    1.00    0.90
  -1  -6   1    1.30    1.00
   6  -1   1    0.00    1.30
  -3  -6  -1 2920.11   48.20
   6  -3  -1 2912.61   47.80
  -3  -6  -1 2906.11   47.40
   6  -3  -1 2962.30   47.70
   6  -3   1 2948.41   47.80
   6  -3   1 2887.21   47.50
  -3  -6   1 2870.51   48.10
   6  -5  -1   52.39    3.30
  -5  -6  -1   54.09    3.80
   6  -5   1   48.50    3.20
  -5  -6   1   58.29    3.90
  -7  -6  -1   63.69    5.00
   6  -7  -1   63.49    4.40
   6  -7   1   65.39    4.20
  -7  -6   1   61.59    5.00
   7   4  -1   19.40    2.80
   4  -7  -1   21.20    2.40
   4  -7   1   24.30    2.40
   7   4   1   19.90    2.80
  -7  -4   1   23.80    3.00
   7   2  -1  111.19    4.70
   2  -7  -1  115.89    4.10
   2  -7   1  115.49    3.90
   7   2   1  122.09    4.80
   0  -7  -1  219.18    5.10
   0  -7  -1  214.18    5.30
   7   0  -1  212.78    6.00
   7   0   1  205.78    6.00
   0  -7   1  220.28    5.10
   0  -7   1  217.08    5.10
   7  -2  -1  111.89    4.10
  -2  -7  -1  120.49    4.10
  -2  -7  -1  111.09    3.70
   7  -2   1  115.69    4.30
  -2  -7   1  115.39    3.50
  -2  -7   1  113.49    3.90
   7  -4  -1   24.60    2.30
  -4  -7  -1   24.20    2.80
   7  -4  -1   28.40    2.40
   7  -4   1   27.20    2.40
  -4  -7   1   23.60    2.70
   7  -6  -1   65.29    4.30
  -6  -7  -1   70.89    5.00
  -6  -7   1   66.49    5.00
   7  -6   1   62.69    4.10
   8   5  -1  210.98    7.50
   5  -8  -1  209.38    6.70
   8   5   1  201.98    7.30
   5  -8   1  208.28    6.50
   3  -8  -1  111.39    4.60
   8   3  -1  114.29    5.60
   3  -8   1  113.09    4.50
   8   3   1  105.59    5.50
   1  -8  -1   45.20    2.80
   8   1  -1   40.80    3.40
   1  -8  -1   52.09    3.40
   1  -8   1   46.80    3.20
   8   1   1   38.60    3.40
  -1  -8  -1   52.09    3.20
   8  -1  -1   49.99    3.80
  -1  -8  -1   50.39    3.10
   8  -1   1   40.30    3.20
  -1  -8   1   45.40    3.00
  -1  -8   1   46.50    3.10
   8  -3  -1  115.39    4.70
  -3  -8  -1  115.69    4.90
  -3  -8   1  120.09    4.90
   8  -3   1  112.39    4.70
  -5  -8  -1  226.98    7.50
  -5  -8   1  226.48    7.40
   4  -9  -1    7.30    2.70
   9   4  -1    7.40    3.50
   9   4   1    6.10    3.30
   4  -9   1    8.30    2.60
   9   2  -1    1.70    2.80
   2  -9  -1   -0.10    2.20
   2  -9   1    2.50    2.20
   9   2   1    0.00    2.70
   0  -9  -1 1047.40   19.10
   9   0  -1 1000.50   20.00
   0  -9   1 1060.89   18.90
   9   0   1 1028.40   20.00
   0  -9   1 1044.70   18.80
   9  -2  -1   -0.50    2.40
  -2  -9  -1    1.80    2.20
   9  -2   1    2.70    2.60
  -2  -9   1    0.70    2.20
  -4  -9  -1   13.90    3.10
  -4  -9   1   13.40    3.00
  10   1  -1   43.30    4.40
   1 -10  -1   50.29    3.80
  10   1   1   42.70    4.30
   1 -10   1   55.09    3.70
   1 -10   1   54.59    4.10
  10  -1  -1   45.60    4.20
  10  -1   1   54.69    4.40
  -1 -10   1   55.49    4.30
   0   0  -2  849.72   13.80
   1   1  -2   55.99    1.30
   1  -1  -2   54.69    1.40
  -1  -1  -2   58.79    1.50
   1  -1  -2   58.39    1.50
  -1  -1   2   53.89    1.30
   1  -1   2   57.29    1.30
   1   1   2   55.59    1.40
   0   2  -2 1308.07   20.70
   2   0  -2 1293.57   21.00
   0  -2  -2 1281.87   20.70
   0  -2  -2 1281.27   21.00
   2   0  -2 1319.17   20.70
   0   2   2 1264.17   20.70
   2   0   2 1282.57   21.20
  -2   0   2 1288.57   21.10
   0  -2   2 1289.97   20.80
   2   2  -2 1594.64   26.30
  -2  -2  -2 1661.03   26.30
  -2  -2  -2 1555.74   26.70
   2  -2  -2 1603.64   26.40
   2  -2  -2 1628.84   26.20
   2  -2   2 1660.53   26.20
  -2  -2   2 1687.53   25.80
   2   2   2 1603.54   26.50
   2  -2   2 1615.54   26.20
  -2  -2   2 1599.64   26.50
   1  -3  -2  114.09    2.70
   1  -3  -2  114.19    2.40
   3   1   2  110.29    2.90
  -3  -1   2  110.69    3.00
   1  -3   2  115.59    2.50
   3  -1  -2  114.39    2.70
  -1  -3  -2  114.59    2.60
   1   3  -2  113.99    2.20
   3  -1  -2  113.19    2.50
  -1  -3  -2  110.89    2.70
   3  -1   2  114.39    2.40
   3  -1   2  115.39    2.80
   1   3   2  113.19    2.60
  -1  -3   2  118.79    2.40
   3  -3  -2 2712.33   43.20
   3  -3  -2 2619.64   43.50
   3   3  -2 2694.63   43.50
  -3  -3  -2 2700.73   44.10
  -3  -3  -2 2721.23   43.20
   3  -3   2 2675.73   43.30
   3   3   2 2633.04   43.70
   3  -3   2 2704.93   43.10
  -3  -3   2 2675.83   43.80
   2  -4  -2 1550.54   26.20
   2  -4  -2 1579.44   25.60
   4   2  -2 1594.44   26.40
   4   2   2 1586.44   26.60
  -4  -2   2 1580.04   26.70
   0  -4  -2  498.75    8.80
   0  -4  -2  499.65    9.20
   4   0  -2  513.55    9.30
   4   0  -2  509.15    8.60
   0   4   2  507.85    8.60
   0  -4   2  512.25    8.90
   4   0   2  517.55    9.50
   4  -2  -2 1598.34   26.40
  -2  -4  -2 1590.64   26.30
  -2  -4  -2 1568.44   26.60
   2   4  -2 1627.34   26.00
   4  -2  -2 1576.54   26.30
  -2  -4   2 1625.04   25.90
   4  -2   2 1597.44   26.10
   4  -2   2 1608.54   26.50
   2   4   2 1589.14   26.40
  -2  -4   2 1601.24   26.50
  -4  -4  -2 1271.07   22.40
   4  -4  -2 1266.17   21.20
   4  -4  -2 1265.07   21.70
   4   4  -2 1262.27   21.70
   4   4   2 1290.57   22.00
  -4  -4   2 1261.27   22.20
   4  -4   2 1256.47   21.50
   4  -4   2 1321.77   21.20
   5   3  -2   28.40    2.20
   3  -5  -2   22.60    1.90
   5   3   2   26.00    2.20
   3  -5   2   25.90    1.70
  -5  -3   2   23.90    2.20
   5   1  -2    2.70    1.10
   1  -5  -2    1.60    1.00
   5   1   2    0.50    1.20
   5  -1  -2    3.30    0.80
  -1  -5  -2    1.30    0.90
  -1  -5  -2    1.40    0.90
   5  -1  -2    2.00    1.10
   1   5   2    2.20    0.80
  -1  -5   2    2.00    0.80
   5  -1   2    1.30    1.10
   5  -1   2    2.50    0.80
  -1  -5   2    3.30    1.00
   5  -3  -2   26.60    1.80
   5  -3  -2   26.20    2.00
  -3  -5  -2   26.40    2.10
  -3  -5  -2   28.80    1.90
   3   5  -2   26.40    1.90
  -3  -5   2   24.10    1.90
   3   5   2   25.80    2.10
   5  -3   2   29.50    2.00
   5  -3   2   28.40    1.80
  -5  -5  -2   17.20    2.50
   5  -5  -2   18.00    2.00
   5   5  -2   17.00    2.20
   5  -5   2   18.60    1.90
  -5  -5   2   14.70    2.20
   5   5   2   19.20    2.20
   4  -6  -2  215.78    5.80
   6   4  -2  224.08    6.20
  -6  -4   2  207.28    6.30
   6   4   2  218.78    6.20
   4  -6   2  214.98    5.50
   2  -6  -2  354.66    7.60
   6   2  -2  361.36    8.10
   2  -6   2  357.16    7.30
   6   2   2  363.16    8.20
   0  -6  -2  179.48    4.20
   0  -6  -2  184.18    4.70
   0  -6   2  173.78    4.30
   6   0   2  183.08    3.90
   6   0   2  212.88    5.30
   6  -2  -2  361.66    7.70
  -2  -6  -2  373.36    7.70
  -2  -6  -2  359.36    7.40
   6  -2   2  372.76    7.10
  -2  -6   2  358.66    7.60
  -2  -6   2  372.16    7.00
   6  -2   2  368.46    7.80
  -4  -6  -2  224.38    6.10
   6  -4  -2  228.38    5.70
   6  -4  -2  215.98    5.30
  -4  -6   2  221.78    6.10
   6  -4   2  222.58    5.40
  -6  -6  -2   55.79    4.10
   6  -6  -2   61.29    3.90
   6  -6   2   54.09    3.70
  -6  -6   2   53.29    4.20
   7   5  -2   27.20    3.20
   5  -7  -2   32.40    3.00
   5  -7   2   28.50    2.70
   7   5   2   30.80    3.20
  -7  -5   2   25.50    3.30
   7   3  -2   96.69    4.60
   3  -7  -2   89.49    4.00
   3  -7   2   87.39    3.70
   7   3   2   90.89    4.60
   7   1  -2   45.00    3.40
   1  -7  -2   49.40    2.30
   1  -7  -2   48.00    3.00
   1  -7   2   50.49    2.70
   7   1   2   47.50    3.60
  -1  -7  -2   50.19    2.90
  -1  -7  -2   50.99    2.80
   7  -1  -2   53.09    3.30
  -1  -7   2   49.20    2.50
   7  -1   2   49.70    3.40
  -1  -7   2   54.19    2.80
   7  -3  -2   88.39    3.90
  -3  -7  -2   94.19    4.10
   7  -3   2   93.89    3.50
  -3  -7   2   93.29    4.10
   7  -3   2   93.49    3.90
  -5  -7  -2   38.10    3.50
   7  -5  -2   33.80    3.00
   7  -5   2   39.10    2.90
  -5  -7   2   26.50    3.10
  -7  -7  -2   16.20    3.50
   7  -7  -2   13.10    3.10
  -7  -7   2   18.20    3.60
   7  -7   2   18.20    2.90
   6  -8  -2  138.49    5.90
   6  -8   2  120.99    5.60
   8   4  -2  393.76   10.30
   4  -8  -2  389.36    9.40
   8   4   2  422.76   10.30
   4  -8   2  394.46    9.10
   8   2  -2  296.67    8.30
   2  -8  -2  300.67    7.50
   8   2   2  295.37    8.30
   2  -8   2  307.47    7.10
   8   0  -2  285.77    7.60
   0  -8  -2  283.07    7.00
   0  -8   2  280.47    6.50
   0  -8   2  278.27    6.50
   8   0   2  273.87    7.60
  -2  -8  -2  305.97    7.20
  -2  -8  -2  319.57    7.50
   8  -2  -2  303.17    7.70
   8  -2   2  306.27    7.80
  -2  -8   2  311.67    7.50
  -4  -8  -2  424.66   10.20
  -4  -8   2  444.46   10.20
  -6  -8  -2  128.69    6.50
   8  -6   2  128.19    5.60
  -6  -8   2  120.89    6.30
   3  -9  -2  471.65   10.80
   9   3  -2  460.05   11.80
   3  -9   2  478.65   10.50
   9   3   2  479.45   11.90
   1  -9  -2   37.80    3.20
   9   1  -2   35.70    3.80
   9   1   2   33.10    3.80
   1  -9   2   36.60    2.80
  -1  -9  -2   35.70    3.00
   9  -1  -2   36.30    3.60
  -1  -9   2   42.00    3.20
   9  -1   2   36.80    3.60
   9  -3  -2  489.65   11.20
  -3  -9  -2  503.75   11.30
  -3  -9   2  513.15   11.30
   9  -3   2  473.45   11.10
  10   0  -2   49.10    4.50
   0 -10  -2   55.29    4.00
   0 -10   2   61.59    4.10
  10   0   2   56.89    4.60
   0 -10   2   61.39    4.20
   0  -1  -3   -0.80    0.50
   1   0  -3    1.60    0.50
   0   1  -3   -0.60    0.40
   0  -1  -3    0.50    0.60
   1   0   3    0.30    0.40
  -1   0   3   -0.40    0.30
   1  -2  -3 2221.08   35.40
   1  -2  -3 2119.09   35.20
   2   1  -3 2193.28   35.70
  -2  -1   3 2149.98   35.30
   2   1   3 2177.78   35.50
   1  -2   3 2175.98   35.10
   1  -2   3 2284.97   35.50
  -1  -2  -3 2113.99   35.40
   2  -1  -3 2206.18   35.30
   1   2  -3 2176.88   35.80
   2  -1  -3 2156.18   35.40
  -1  -2  -3 2278.37   35.60
  -1  -2   3 2233.18   35.40
   2  -1   3 2225.18   35.40
   1   2   3 2162.98   35.70
   3   2  -3   43.80    1.80
   2  -3  -3   43.50    1.90
   2  -3  -3   44.40    1.60
   2  -3   3   47.80    1.60
   2  -3   3   51.89    1.50
  -3  -2   3   43.20    1.90
   3   2   3   50.39    2.10
   0   3  -3  114.19    2.30
   3   0  -3  114.99    2.30
   0  -3  -3  111.09    2.30
   0  -3  -3  119.19    2.80
   3   0  -3  113.39    2.70
   3   0   3  109.69    2.90
   0   3   3  105.49    2.40
   0  -3   3  111.49    2.40
  -3   0   3  112.19    2.80
   3  -2  -3   48.10    1.80
   3  -2  -3   46.40    1.70
  -2  -3  -3   44.60    2.00
   2   3  -3   47.50    1.50
  -2  -3  -3   45.20    1.80
   3  -2   3   45.30    1.70
  -2  -3   3   50.19    1.20
   3  -2   3   45.50    1.60
  -2  -3   3   44.50    1.70
   2   3   3   43.40    1.80
   3  -4  -3   47.00    1.90
   4   3  -3   50.39    2.30
   3  -4  -3   50.09    2.40
   3  -4   3   52.49    1.70
   3  -4   3   47.40    2.00
  -4  -3   3   50.79    2.50
   4   3   3   46.70    2.50
   1  -4  -3 1225.58   19.80
   1  -4  -3 1180.08   20.20
  -4  -1   3 1176.08   20.50
   1  -4   3 1186.78   19.80
   4   1   3 1208.78   20.50
  -1  -4  -3 1185.98   20.50
   4  -1  -3 1234.78   20.20
  -1  -4  -3 1212.68   20.30
   1   4  -3 1243.58   19.80
   4  -1  -3 1235.88   20.60
  -1  -4   3 1223.08   20.00
   4  -1   3 1223.48   20.10
   1   4   3 1210.48   20.20
   4  -1   3 1208.18   20.70
   3   4  -3   54.39    2.00
  -3  -4  -3   50.69    2.70
   4  -3  -3   52.99    2.30
  -3  -4  -3   51.49    2.20
   4  -3  -3   51.79    2.10
   4  -3   3   47.90    2.00
   3   4   3   51.99    2.30
  -3  -4   3   48.70    2.30
   4  -3   3   55.99    2.20
   4  -5  -3  601.24   11.60
   5   4  -3  607.24   11.60
   4  -5   3  587.14   11.20
  -5  -4   3  608.64   12.00
   5   4   3  603.24   11.90
   5   2  -3 1391.16   23.70
   2  -5  -3 1354.86   23.50
   2  -5   3 1386.16   23.10
  -5  -2   3 1386.46   24.00
   5   2   3 1371.96   23.90
   0  -5  -3  130.79    3.60
   0  -5  -3  134.29    3.10
   5   0  -3  135.19    3.80
   0   5   3  131.29    2.90
   5   0   3  138.39    4.00
   0  -5   3  129.69    3.20
   5  -2  -3 1361.86   23.00
  -2  -5  -3 1365.66   23.30
  -2  -5  -3 1380.96   23.10
   5  -2  -3 1390.76   23.30
  -2  -5   3 1354.86   23.30
   2   5   3 1348.07   23.00
  -2  -5   3 1403.36   22.60
   5  -2   3 1348.17   23.40
   5  -2   3 1416.56   22.90
   4   5  -3  609.74   11.20
  -4  -5  -3  606.54   11.00
   5  -4  -3  605.94   11.50
   5  -4  -3  598.04   11.00
  -4  -5  -3  602.24   12.00
   4   5   3  588.54   11.50
  -4  -5   3  585.14   11.70
   5  -4   3  605.04   11.10
   5  -6  -3   18.30    2.50
   6   5  -3   19.40    2.60
   6   5   3   18.40    2.60
  -6  -5   3   20.80    2.80
   5  -6   3   17.70    2.20
   3  -6  -3    6.10    1.70
   6   3  -3    4.50    1.80
   6   3   3    5.30    2.00
   3  -6   3    5.80    1.50
  -6  -3   3    8.50    2.10
   1  -6  -3    2.40    1.00
   6   1  -3    3.70    1.50
   1  -6  -3    1.60    1.40
   6   1   3    1.00    1.60
   1  -6   3    3.10    1.10
   6  -1  -3    2.00    1.30
  -1  -6  -3    7.60    1.40
  -1  -6  -3    2.70    1.20
  -1  -6   3    4.10    1.30
   6  -1   3    4.10    1.60
   6  -1   3    4.40    1.00
  -1  -6   3    2.00    1.00
  -3  -6  -3    5.30    1.70
   6  -3  -3    7.50    1.70
   6  -3  -3    8.10    1.60
  -3  -6  -3    8.50    1.50
   6  -3   3    5.60    1.60
  -3  -6   3    7.60    1.70
   6  -3   3    6.90    1.40
   6  -5  -3   16.40    2.40
  -5  -6  -3   15.20    2.70
   6  -5   3   21.40    2.20
  -5  -6   3   22.10    2.70
   6  -7  -3   47.30    3.80
  -7  -6   3   44.90    4.00
   7   6   3   40.70    4.60
   6  -7   3   51.69    3.50
   7   4  -3  460.35   10.60
   4  -7  -3  462.75   10.10
   4  -7   3  448.96    9.60
   7   4   3  461.65   10.50
  -7  -4   3  456.35   10.70
   2  -7  -3  387.06    8.50
   7   2  -3  375.76    8.90
   7   2   3  375.16    9.00
   2  -7   3  374.36    7.90
   0  -7  -3  120.69    4.20
   7   0  -3  126.99    4.60
   0  -7   3  125.99    3.70
   7   0   3  119.69    4.60
   7  -2  -3  382.66    8.50
  -2  -7  -3  379.86    8.10
  -2  -7  -3  382.96    8.30
  -2  -7   3  380.56    8.30
   7  -2   3  384.66    8.60
   7  -2   3  388.66    7.70
   7  -4  -3  467.55    9.80
  -4  -7  -3  476.85   10.60
  -4  -7   3  470.45   10.40
   7  -4   3  486.45    9.80
  -6  -7  -3   46.70    4.10
   7  -6  -3   40.60    3.60
   7  -6   3   53.69    3.50
  -6  -7   3   47.90    4.00
   8   5  -3  448.16   11.30
   5  -8  -3  460.05   10.80
   5  -8   3  457.05   10.40
   8   5   3  464.45   11.30
  -8  -5   3  464.95   11.40
   8   3  -3   43.30    3.90
   3  -8  -3   44.70    3.40
   8   3   3   49.60    3.90
   3  -8   3   50.69    3.50
   1  -8  -3  486.55   10.40
   8   1  -3  486.15   11.10
   1  -8   3  491.95    9.90
   8   1   3  487.15   11.10
  -1  -8  -3  494.05   10.20
   8  -1  -3  490.75   10.80
   8  -1   3  482.75   10.90
  -1  -8   3  498.65   10.20
  -1  -8   3  485.45    9.60
  -3  -8  -3   50.39    3.80
   8  -3  -3   46.90    3.70
  -3  -8   3   48.50    3.50
   8  -3   3   44.20    3.80
  -5  -8  -3  482.75   11.40
  -5  -8   3  459.45   11.20
   8  -5   3  464.75   10.30
   9   4  -3    8.80    3.50
   4  -9  -3   18.30    3.20
   9   4   3   10.30    3.40
   4  -9   3   12.80    2.80
   2  -9  -3    3.00    2.50
   9   2  -3   -0.80    2.90
   2  -9   3    0.20    2.00
   9   2   3   -0.70    2.80
   0  -9  -3    3.60    2.30
   9   0  -3    0.80    2.60
   0  -9   3    2.20    2.00
   9   0   3   -0.40    2.60
   0  -9   3    2.60    1.80
  -2  -9  -3    4.70    2.70
   9  -2  -3    2.40    2.50
   9  -2   3    1.20    2.60
  -2  -9   3    4.10    2.30
  -4  -9   3   17.60    3.30
   0   0  -4  266.77    5.00
   1  -1  -4 3472.15   58.19
   1   1  -4 3576.34   57.89
   1  -1  -4 3451.15   56.49
   1  -1   4 3524.35   57.19
   1   1   4 3611.64   58.19
   0   2  -4 4070.29   65.39
   0  -2  -4 3989.30   64.39
   2   0  -4 3986.20   64.29
   2   0   4 3955.70   66.39
  -2   0   4 4081.19   65.29
   2  -2  -4  859.51   14.70
   2   2  -4  863.61   14.50
   2  -2  -4  856.31   14.60
   2   2   4  852.31   14.70
  -2  -2   4  873.21   14.60
   2  -2   4  873.71   14.50
   1  -3  -4   22.40    1.30
   3   1  -4   19.30    1.40
   1  -3  -4   21.20    1.50
   1  -3  -4   23.80    0.80
   1  -3   4   21.90    1.10
  -3  -1   4   20.70    1.40
   3   1   4   24.00    1.60
   1  -3   4   22.30    1.00
   1   3  -4   22.00    1.10
   3  -1  -4   20.00    1.30
   3  -1  -4   21.30    1.30
  -1  -3  -4   20.60    1.40
  -1  -3   4   20.20    0.90
   3  -1   4   22.40    1.50
   1   3   4   19.20    1.20
   3  -3  -4 1378.16   23.10
   3  -3  -4 1371.66   23.40
   3   3  -4 1418.96   23.10
   3  -3   4 1394.86   23.00
  -3  -3   4 1396.06   23.40
   3   3   4 1366.66   23.40
   3  -3   4 1388.46   22.90
   4   2  -4   60.09    2.40
   2  -4  -4   58.79    2.60
   2  -4  -4   61.39    2.10
   2  -4   4   59.49    2.00
  -4  -2   4   56.39    2.50
   4   2   4   61.59    2.60
   2  -4   4   57.59    2.30
   0  -4  -4  490.55    8.50
   0  -4  -4  492.35    9.20
   4   0  -4  486.95    8.30
   4   0  -4  494.85    9.10
   0  -4   4  489.25    8.50
   0   4   4  476.15    8.50
   4   0   4  485.05    9.30
   2   4  -4   63.29    1.90
   4  -2  -4   62.99    2.40
  -2  -4  -4   58.69    2.60
  -2  -4  -4   59.59    2.40
   4  -2  -4   62.59    2.30
  -2  -4   4   61.09    2.30
   4  -2   4   61.29    2.10
   2   4   4   63.59    2.30
   4  -2   4   58.89    2.40
  -2  -4   4   60.09    1.70
   4  -4  -4   77.79    3.30
   4  -4  -4   76.59    2.70
   4   4  -4   76.49    2.90
  -4  -4   4   74.89    3.10
   4  -4   4   74.69    2.70
   4   4   4   70.19    3.10
   3  -5  -4  421.46    8.40
   3  -5  -4  393.16    8.60
   5   3  -4  423.06    8.70
  -5  -3   4  421.36    8.90
   3  -5   4  424.16    8.10
   5   3   4  422.06    8.90
   1  -5  -4 2133.09   36.00
   5   1  -4 2167.58   36.10
   5   1   4 2209.88   36.40
   1  -5   4 2148.39   35.40
  -1   5   4 2174.08   35.10
  -5  -1   4 2191.48   36.30
  -1  -5  -4 2222.78   36.00
  -1  -5  -4 2176.48   36.20
   5  -1  -4 2199.88   36.30
   1   5   4 2148.39   35.70
   5  -1   4 2235.78   35.70
  -1  -5   4 2156.38   35.50
   5  -1   4 2201.28   36.50
  -3  -5  -4  429.16    8.80
   5  -3  -4  416.56    8.50
   5  -3  -4  419.36    8.30
  -3  -5  -4  424.56    8.30
   5  -3   4  430.86    8.10
   3   5   4  415.26    8.40
  -3  -5   4  419.76    8.60
   5  -3   4  410.16    8.30
   5   5  -4 2290.57   38.30
   5  -5  -4 2301.27   38.60
  -5  -5   4 2268.17   38.90
   5  -5   4 2272.17   38.00
   5   5   4 2292.07   38.60
   4  -6  -4  232.78    6.30
   6   4  -4  227.78    6.40
   6   4   4  228.28    6.50
   4  -6   4  221.68    5.70
  -6  -4   4  229.08    6.60
   2  -6  -4 1031.50   18.60
   6   2  -4 1037.10   18.80
  -6  -2   4 1067.59   19.00
   2  -6   4 1024.70   18.00
   6   2   4 1035.90   19.00
   0  -6  -4    3.80    1.50
   6   0  -4   -0.40    1.40
   6   0   4    0.40    1.50
   0  -6   4    0.20    1.00
  -2  -6  -4 1037.90   18.50
  -2  -6  -4 1057.59   18.30
   6  -2  -4 1044.20   18.60
   6  -2   4 1070.89   17.90
  -2  -6   4 1038.00   18.50
   6  -2   4 1021.40   18.70
   6  -4  -4  227.18    5.70
   6  -4  -4  221.48    6.20
  -4  -6  -4  231.78    6.50
   6  -4   4  233.98    5.60
  -4  -6   4  236.98    6.30
   6  -6  -4   21.00    3.00
  -6  -6   4   26.00    3.20
   6  -6   4   21.80    2.50
   6   6   4   21.80    2.90
   7   5  -4  232.08    7.40
   5  -7  -4  236.78    7.10
   5  -7   4  248.98    6.60
   7   5   4  238.98    7.30
  -7  -5   4  239.68    7.50
   3  -7  -4  252.47    6.80
   7   3  -4  259.37    7.20
   7   3   4  250.77    7.20
  -7  -3   4  252.67    7.20
   3  -7   4  254.97    6.20
   7   1  -4  631.24   12.90
   1  -7  -4  634.54   12.50
   1  -7   4  628.84   11.80
   7   1   4  646.34   13.10
  -1  -7  -4  657.13   12.50
   7  -1  -4  640.04   12.80
   7  -1   4  644.24   13.00
  -1  -7   4  664.33   11.80
   7  -1   4  644.14   12.20
  -1  -7   4  647.34   12.30
  -3  -7  -4  256.27    6.70
   7  -3  -4  251.97    6.50
  -3  -7  -4  261.17    6.30
  -3  -7   4  245.48    6.60
   7  -3   4  266.07    6.10
   7  -3   4  250.97    6.50
  -5  -7  -4  248.18    7.50
  -5  -7   4  239.78    7.30
   7  -5   4  244.18    6.60
   4  -8  -4    4.70    2.70
   8   4  -4   14.20    3.30
   8   4   4   16.60    3.10
  -8  -4   4    8.50    2.90
   4  -8   4   11.40    2.30
   2  -8  -4  280.37    7.60
   8   2  -4  301.77    8.30
   2  -8   4  288.67    6.90
   8   2   4  283.27    8.10
   0  -8  -4 1399.66   24.80
   8   0  -4 1418.56   25.50
   0  -8   4 1422.86   24.10
   8   0   4 1367.66   25.30
  -2  -8  -4  288.97    7.20
   8  -2  -4  286.77    7.70
  -2  -8   4  306.57    7.40
   8  -2   4  289.77    7.70
   8  -4  -4    5.70    2.20
   8  -4   4    7.20    2.20
  -4  -8   4   12.70    2.70
   3  -9  -4   83.89    5.30
   9   3  -4   76.19    6.00
   9   3   4   83.19    5.60
   3  -9   4   78.09    4.50
   1  -9  -4    4.50    2.50
   9   1  -4    7.50    3.10
   9   1   4    6.10    2.90
   1  -9   4    7.70    2.10
   9  -1  -4    5.80    2.70
  -1  -9  -4    8.50    2.50
   9  -1   4    6.80    2.80
  -1  -9   4   10.20    2.40
   9  -3  -4   81.69    5.00
  -3  -9   4   83.59    4.90
   0   1  -5 2336.67   37.60
   1   0  -5 2333.07   37.60
   0  -1  -5 2291.37   37.80
   1   0   5 2310.57   37.40
   1  -2  -5  473.85    8.70
   1  -2  -5  474.45    8.80
   2   1  -5  480.55    8.60
  -2  -1   5  480.95    8.40
   2   1   5  483.75    8.70
   1  -2   5  486.15    8.30
  -1  -2  -5  491.45    9.00
   2  -1  -5  498.25    8.80
   2  -1  -5  492.85    8.90
   1   2  -5  495.15    8.60
   2  -1   5  481.05    8.70
   1   2   5  479.65    8.70
   2  -3  -5 2663.53   43.70
   2  -3  -5 2708.63   44.00
   3   2  -5 2673.93   43.70
   2  -3   5 2760.52   43.40
   2  -3   5 2695.43   43.40
  -3  -2   5 2657.13   43.80
   3   2   5 2680.23   44.00
   0  -3  -5  228.98    5.10
   0   3  -5  234.78    4.60
   3   0  -5  227.58    4.80
  -3   0   5  225.08    4.70
   0  -3   5  228.68    4.30
   0   3   5  222.78    4.50
   3   0   5  231.78    5.00
  -2  -3  -5 2783.82   44.50
   3  -2  -5 2763.62   44.40
   3  -2  -5 2677.33   44.30
   2   3  -5 2742.23   44.00
   2   3   5 2672.73   44.30
   3  -2   5 2716.53   44.20
  -2  -3   5 2714.03   44.20
  -2  -3   5 2727.43   43.50
   4   3  -5  400.76    7.80
   3  -4  -5  397.46    8.10
   3  -4  -5  379.56    7.50
   4   3   5  391.96    8.10
   3  -4   5  382.46    7.50
  -4  -3   5  392.36    8.00
   1  -4  -5   94.29    2.90
   1  -4  -5   93.69    3.20
   4   1   5   96.69    3.20
   1  -4   5   93.09    2.50
  -4  -1   5   91.19    3.00
   1  -4   5   94.19    2.40
   4  -1  -5   93.59    2.70
   4  -1  -5   93.89    3.00
   1   4  -5   97.09    2.40
  -1  -4  -5  101.09    2.90
  -1  -4  -5   94.89    3.10
   1   4   5   97.49    2.70
   4  -1   5   93.29    3.10
  -1  -4   5   91.59    2.30
  -3  -4  -5  388.36    7.80
   3   4  -5  393.96    7.40
   4  -3  -5  390.76    7.70
   4  -3  -5  395.46    8.00
   4  -3   5  382.26    7.60
   4  -3   5  380.66    7.40
   3   4   5  376.36    7.80
  -3  -4   5  391.16    7.80
   4  -5  -5   32.00    2.60
   5   4  -5   35.20    2.80
   4  -5  -5   35.30    2.60
  -5  -4   5   35.50    2.80
   5   4   5   38.80    3.20
   4  -5   5   37.40    2.50
   2  -5  -5  743.63   14.10
   5   2  -5  774.92   14.10
   2  -5  -5  776.32   13.60
   5   2   5  757.12   14.30
   2  -5   5  749.53   13.40
  -5  -2   5  776.12   14.30
   0  -5  -5 3048.90   50.79
   5   0  -5 3086.99   50.69
   0   5   5 3079.79   49.99
   0  -5   5 3116.99   49.99
   5   0   5 3159.08   50.99
  -2  -5  -5  804.22   14.30
  -2  -5  -5  786.22   14.20
   5  -2  -5  790.52   14.00
   5  -2  -5  768.52   14.20
   5  -2   5  797.42   13.70
   2   5   5  747.13   13.80
  -2  -5   5  790.52   13.30
  -2  -5   5  776.12   14.10
   5  -2   5  789.22   14.30
   5  -4  -5   37.90    2.50
   5  -4  -5   37.40    2.80
  -4  -5   5   36.70    2.70
   4   5   5   32.50    2.80
   5  -4   5   38.60    2.50
   6   5  -5  910.91   19.10
   5  -6  -5  966.10   18.10
   6   5   5  954.40   18.00
   5  -6   5  932.31   17.30
  -6  -5   5  965.70   18.30
   6   3  -5    1.70    1.90
   3  -6  -5    2.80    1.90
  -6  -3   5    4.50    1.90
   3  -6   5    2.50    1.40
   6   3   5    0.90    1.90
   6   1  -5  687.63   13.30
   1  -6  -5  676.53   13.10
   6   1   5  706.63   13.50
   1  -6   5  687.73   12.40
  -1  -6  -5  687.63   13.10
   6  -1  -5  712.13   13.30
   6  -1   5  693.83   13.40
   6  -1   5  707.23   12.40
  -1  -6   5  690.53   12.30
  -3  -6  -5    2.80    1.60
   6  -3  -5    4.00    1.60
  -3  -6  -5    2.90    1.90
   6  -3   5    4.40    1.40
   6  -3   5    1.30    1.60
  -3  -6   5    2.20    1.60
   6  -5  -5  961.20   18.10
  -5  -6   5  965.90   18.30
   6  -5   5  960.40   17.30
   5   6   5  930.81   17.70
   6  -7  -5   29.80    3.70
  -7  -6   5   32.10    3.90
   7   6   5   33.10    3.60
   6  -7   5   28.60    3.20
   4  -7  -5   50.99    3.70
   7   4  -5   41.70    3.50
  -7  -4   5   48.70    3.90
   7   4   5   42.10    3.50
   4  -7   5   48.00    3.10
   2  -7  -5    0.70    2.00
   7   2  -5    1.20    2.10
   2  -7   5    2.40    1.50
   7   2   5    0.80    2.10
   7   0  -5   16.40    2.30
   0  -7  -5   14.80    2.20
   0  -7   5   18.40    1.70
   7   0   5   17.60    2.40
  -2  -7  -5   -0.80    1.70
   7  -2  -5    2.00    1.80
   7  -2   5    1.80    1.40
  -2  -7   5    1.80    1.70
   7  -2   5    0.00    1.80
   7  -4  -5   42.40    3.40
   7  -4   5   39.20    2.70
  -4  -7   5   55.09    3.80
  -6  -7   5   29.40    3.60
   7  -6   5   31.80    3.20
   5  -8  -5  325.77    9.30
   8   5  -5  337.37   10.40
   5  -8   5  333.37    8.50
  -8  -5   5  336.17    9.50
   8   5   5  336.77    9.40
   8   3  -5 1125.79   21.70
   3  -8  -5 1126.99   21.20
   8   3   5 1134.79   21.60
   3  -8   5 1118.09   20.30
   1  -8  -5  145.49    5.50
   8   1  -5  142.59    5.90
   8   1   5  144.89    5.80
   1  -8   5  147.79    4.60
  -1  -8  -5  155.78    5.40
   8  -1  -5  150.98    5.60
  -1  -8   5  147.99    5.00
   8  -1   5  146.89    5.70
  -3  -8  -5 1074.49   22.90
   8  -3  -5 1105.79   20.70
   8  -3   5 1081.69   21.70
   8  -3   5 1152.78   20.80
  -3  -8   5 1160.28   20.90
  -5  -8   5  337.17    9.30
   8  -5   5  336.67    8.40
   2  -9  -5  254.57    7.80
   9   2  -5  269.77    8.80
   9   2   5  276.67    8.40
   2  -9   5  266.07    7.10
   0  -9  -5   25.60    3.20
   9   0  -5   22.40    3.40
   9   0   5   20.50    3.30
   0  -9   5   22.60    2.90
   0  -9   5   27.30    2.90
  -2  -9  -5  274.47    7.60
   9  -2  -5  280.87    8.10
   9  -2   5  260.57    8.10
  -2  -9   5  285.17    7.70
   0   0  -6  110.69    3.00
   1  -1  -6  135.89    3.30
   1  -1  -6  130.79    3.30
   1   1  -6  132.09    3.20
   1  -1   6  133.69    3.00
   1   1   6  133.49    3.10
   2   0  -6 1238.68   20.70
   0  -2  -6 1226.68   20.90
   0   2  -6 1235.38   20.70
   2   0   6 1243.28   20.60
  -2   0   6 1209.08   20.10
   2  -2  -6  924.11   16.00
   2   2  -6  940.51   15.90
   2  -2  -6  935.11   16.20
   2   2   6  910.81   15.90
  -2  -2   6  925.41   15.70
   2  -2   6  936.61   15.70
   1  -3  -6 2795.52   46.10
   3   1  -6 2759.52   46.00
   1  -3  -6 2839.32   46.40
   1  -3   6 2850.11   45.50
  -3  -1   6 2837.72   45.80
   3   1   6 2860.41   46.20
   1  -3   6 2864.71   45.60
  -1  -3  -6 2940.51   46.60
   1   3  -6 2872.81   46.10
   3  -1  -6 2848.31   46.40
   3  -1  -6 2845.52   46.20
  -1  -3   6 2824.02   45.60
   1   3   6 2800.82   46.10
   3  -1   6 2793.62   46.30
   3   3  -6  576.74   10.50
   3  -3  -6  571.94   10.70
   3  -3  -6  583.24   11.00
  -3  -3   6  578.54   10.70
   3   3   6  572.14   10.80
   3  -3   6  581.14   10.30
   3  -3   6  578.14   10.40
   4   2  -6  249.38    5.60
   2  -4  -6  248.88    5.40
   2  -4  -6  240.68    5.90
   4   2   6  236.78    5.80
  -4  -2   6  245.68    5.60
   2  -4   6  248.48    5.10
   4   0  -6  106.89    3.30
   0  -4  -6  104.19    3.50
   0  -4   6  101.39    2.40
  -4   0   6  104.49    3.00
   0   4   6   99.19    2.70
   0  -4   6  105.39    2.60
   4   0   6  100.69    3.30
  -2  -4  -6  248.98    5.80
   2   4  -6  257.47    5.30
   4  -2  -6  253.27    5.60
   4  -2  -6  251.27    5.70
   2   4   6  251.87    5.50
  -2  -4   6  252.67    5.50
   4  -2   6  245.38    5.60
  -2  -4   6  256.47    4.70
   4   4  -6  244.48    5.60
   4  -4  -6  235.28    5.60
   4  -4  -6  235.98    6.20
  -4  -4   6  241.68    5.90
   4   4   6  241.88    6.00
   4  -4   6  240.98    5.40
   3  -5  -6 2650.23   44.20
   3  -5  -6 2641.24   43.50
   5   3  -6 2654.13   43.90
   3  -5   6 2669.33   43.40
   5   3   6 2634.14   44.10
  -5  -3   6 2617.54   44.10
   1  -5  -6   34.70    2.50
   5   1  -6   31.40    2.50
  -5  -1   6   27.50    2.20
   5   1   6   27.80    2.30
  -1   5   6   31.00    1.80
   1  -5   6   32.30    1.90
  -1  -5  -6   27.60    2.20
   5  -1  -6   29.00    2.40
   1   5   6   30.30    1.90
   5  -1   6   32.70    2.50
  -1  -5   6   30.30    1.60
  -3  -5  -6 2675.33   44.70
   5  -3  -6 2725.63   44.70
   5  -3  -6 2711.53   44.90
   5  -3   6 2725.03   44.30
  -3  -5   6 2703.23   44.80
   5  -3   6 2708.83   44.70
   3   5   6 2701.63   44.70
   5  -5  -6    9.50    2.40
   5   5   6    8.50    2.10
  -5  -5   6    9.80    2.30
   5  -5   6    9.60    1.80
   6   4  -6   50.09    3.70
   4  -6  -6   45.30    3.40
   6   4   6   49.50    3.80
   4  -6   6   50.29    3.10
  -6  -4   6   49.00    3.80
   6   2  -6  333.17    7.80
   2  -6  -6  327.97    7.90
   6   2   6  331.17    7.90
  -6  -2   6  329.37    7.80
   2  -6   6  320.17    6.90
   0  -6  -6   -1.20    1.50
   6   0  -6    0.50    1.50
   0  -6   6   -0.60    1.00
   6   0   6    2.60    1.80
  -2  -6  -6  325.47    7.60
   6  -2  -6  326.97    7.60
  -2  -6   6  350.76    7.50
   6  -2   6  325.67    7.60
   6  -2   6  333.77    7.00
   6  -4  -6   44.80    3.20
   4   6   6   45.10    3.20
  -4  -6   6   45.40    3.40
   6  -4   6   49.20    3.10
   6  -6  -6   12.00    3.00
  -6  -6   6    5.20    2.60
   6  -6   6    5.40    2.20
   6   6   6    4.00    2.40
   5  -7  -6  158.68    6.50
  -7  -5   6  155.88    6.40
   7   5   6  157.18    6.20
   5  -7   6  155.28    5.50
   7   3  -6  394.56    9.60
   3  -7  -6  408.26    9.60
   3  -7   6  385.16    8.60
   7   3   6  416.86    9.70
  -7  -3   6  388.96    9.50
   7   1  -6  115.19    4.90
   1  -7  -6  116.79    4.80
   7   1   6  121.39    5.00
   1  -7   6  119.39    3.90
   7  -1  -6  122.69    4.70
  -1  -7  -6  116.99    4.70
   7  -1   6  121.29    3.80
  -1  -7   6  115.99    4.20
   7  -1   6  125.09    4.90
  -3  -7  -6  396.26    8.90
   7  -3  -6  393.06    9.10
   7  -3   6  414.46    9.20
  -3  -7   6  397.66    9.10
   7  -3   6  419.06    8.60
  -5  -7   6  159.28    6.10
   7  -5   6  163.28    5.40
   8   4  -6   70.49    5.40
   4  -8  -6   69.89    4.60
   8   4   6   66.19    5.20
  -8  -4   6   67.09    5.10
   4  -8   6   63.99    4.10
   8   2  -6  320.17    8.80
   2  -8  -6  295.17    8.30
   2  -8   6  311.57    7.30
   8   2   6  306.57    8.60
   8   0  -6  494.25   11.30
   0  -8  -6  503.35   11.10
   8   0   6  508.25   11.50
   0  -8   6  508.55   10.00
  -2  -8  -6  313.67    7.90
   8  -2  -6  309.77    8.20
  -2  -8   6  301.97    7.80
   8  -2   6  302.47    8.20
   8  -4  -6   62.49    4.40
   8  -4   6   69.29    3.90
  -4  -8   6   71.89    4.80
   9   1  -6  539.25   12.80
   1  -9  -6  536.45   12.30
   1  -9   6  541.85   11.10
   9   1   6  526.15   12.50
  -1  -9  -6  549.85   12.00
   9  -1  -6  538.45   12.40
   9  -1   6  533.95   12.30
  -1  -9   6  533.45   11.70
   0   1  -7  207.28    4.70
   1   0  -7  208.08    4.70
   1   0   7  214.08    4.40
   1  -2  -7   95.69    3.10
   2   1  -7  103.19    3.00
   1  -2  -7  100.89    3.20
  -2  -1   7   99.29    2.50
   2   1   7  108.99    3.00
   1  -2   7  103.59    2.60
   1   2  -7  102.79    3.00
   2  -1  -7  111.89    3.10
   2  -1   7  102.49    2.80
   1   2   7   98.49    2.80
   2  -3  -7  181.78    4.80
   2  -3  -7  180.68    4.60
   3   2  -7  187.58    4.50
   2  -3   7  181.98    4.10
   3   2   7  183.18    4.60
  -3  -2   7  181.98    4.30
   2  -3   7  191.68    4.10
   0  -3  -7  780.12   14.10
   3   0  -7  746.53   13.80
  -3   0   7  792.22   13.30
   0   3   7  774.02   13.50
   3   0   7  787.62   13.80
   3  -2  -7  182.68    4.60
   2   3  -7  186.38    4.30
   3  -2  -7  180.88    4.50
  -2  -3   7  180.08    4.20
   2   3   7  180.58    4.30
   3  -2   7  180.38    4.30
   4   3  -7  100.79    3.50
   3  -4  -7   98.99    4.10
   3  -4  -7   98.89    3.50
   3  -4   7  100.59    3.20
   4   3   7  100.29    3.70
  -4  -3   7  101.59    3.50
   4   1  -7  106.89    3.50
   1  -4  -7   99.19    3.70
   4   1   7  101.79    3.60
  -4  -1   7  102.69    3.20
   1  -4   7  105.79    2.90
   1   4  -7  109.79    3.10
  -1  -4  -7  102.09    3.70
   4  -1  -7  103.39    3.50
   4  -1  -7  100.39    3.10
   4  -1   7  101.29    3.40
  -1  -4   7  104.89    2.60
   1   4   7  100.49    3.00
   4  -3  -7  104.49    3.90
   4  -3  -7  100.29    3.60
   3   4  -7  102.29    3.30
   4  -3   7   94.69    3.20
   4  -3   7   94.19    3.40
   3   4   7   99.79    3.50
  -3  -4   7  102.29    3.40
   5   4  -7   40.10    3.20
   4  -5  -7   41.70    2.90
   4  -5  -7   44.50    3.40
   5   4   7   38.10    2.90
  -5  -4   7   45.40    3.20
   4  -5   7   41.00    2.80
   2  -5  -7   42.90    2.70
   5   2  -7   44.40    3.00
   2  -5  -7   42.30    3.00
  -5  -2   7   42.90    2.80
   5   2   7   41.80    3.10
   2  -5   7   43.60    2.40
   5   0  -7  159.78    4.70
   0  -5  -7  170.38    4.90
   5   0   7  167.18    4.90
   0   5   7  162.38    4.10
   0  -5   7  166.78    3.90
  -2  -5  -7   47.00    3.00
   5  -2  -7   40.70    2.80
   5  -2   7   49.10    2.80
  -2  -5   7   40.90    2.50
   5  -2   7   39.70    2.40
   2   5   7   43.20    2.60
   5  -4  -7   39.60    3.10
   5  -4  -7   44.50    3.10
   5  -4   7   42.10    2.80
  -4  -5   7   44.00    3.20
   4   5   7   43.80    3.20
   5  -6  -7   69.99    5.00
   5  -6   7   71.69    3.90
   6   5   7   77.29    4.60
  -6  -5   7   84.99    4.70
   6   3  -7  362.56    8.60
   3  -6  -7  352.16    8.80
   6   3   7  368.66    8.70
   3  -6   7  369.86    7.80
  -6  -3   7  365.06    8.60
   1  -6  -7   85.49    4.10
   6   1  -7   94.79    4.20
   6   1   7   92.69    4.20
   1  -6   7   92.69    3.20
  -1  -6  -7   87.19    4.10
   6  -1  -7   92.59    4.00
  -1  -6   7   92.89    2.90
   6  -1   7   92.69    4.10
  -3  -6  -7  363.16    8.20
   6  -3  -7  365.46    8.30
  -3  -6   7  356.96    8.20
   6  -3   7  363.26    8.20
   6  -3   7  377.66    7.80
   3   6   7  361.86    8.00
   6  -5   7   78.19    4.00
   5   6   7   82.29    4.40
  -5  -6   7   82.39    4.50
   7   4  -7   53.69    4.60
   4  -7  -7   59.39    4.30
   7   4   7   51.59    4.00
   4  -7   7   48.70    3.20
  -7  -4   7   48.90    3.90
   2  -7  -7   43.30    3.50
   7   2  -7   42.80    3.40
   2  -7   7   42.50    2.70
   7   2   7   45.50    3.50
   0  -7  -7   48.60    3.30
   7   0  -7   52.49    4.00
   7   0   7   53.59    4.10
   0  -7   7   48.20    2.80
  -2  -7  -7   42.50    3.20
   7  -2  -7   44.00    3.40
  -2  -7   7   42.00    3.30
   7  -2   7   47.10    3.10
   7  -2   7   44.40    3.30
   7  -4  -7   49.70    3.90
   7  -4   7   55.59    3.70
  -4  -7   7   50.79    4.00
   3  -8  -7   68.09    4.60
   8   3  -7   75.59    5.40
   8   3   7   67.49    5.10
   3  -8   7   74.39    4.10
   8   1  -7   17.30    3.20
   1  -8  -7   16.40    2.90
   8   1   7   19.20    3.10
   1  -8   7   17.60    2.30
  -1  -8  -7   17.40    2.80
   8  -1  -7   23.90    3.20
   8  -1   7   17.10    3.00
  -1  -8   7   13.10    2.40
  -3  -8  -7   71.69    4.40
   8  -3  -7   76.29    4.80
  -3  -8   7   72.99    4.60
   8  -3   7   70.99    4.00
   0  -9  -7  189.78    6.80
   9   0  -7  189.48    7.40
   0  -9   7  194.08    6.40
   9   0   7  192.88    7.20
   1  -1  -8 1210.88   21.00
   1   1  -8 1228.98   20.90
   1  -1   8 1221.38   20.40
   1   1   8 1210.38   20.50
   2   0  -8   43.80    2.30
   0   2   8   46.20    2.00
   2   0   8   45.40    2.10
   2  -2  -8   38.20    2.50
   2  -2  -8   33.50    2.30
   2   2  -8   31.60    2.10
   2  -2   8   33.90    1.90
  -2  -2   8   30.20    1.70
   2   2   8   31.00    2.00
   3   1  -8  739.73   13.50
   1  -3  -8  747.83   13.80
   1  -3  -8  716.83   13.70
   3   1   8  746.73   13.50
   1  -3   8  747.53   12.90
  -3  -1   8  745.23   12.90
   3  -1  -8  749.42   13.60
   1   3  -8  763.32   13.40
   3  -1   8  725.03   13.40
   1   3   8  739.23   13.20
   3  -3  -8  503.15   10.10
   3   3  -8  524.95   10.00
   3  -3  -8  508.85   10.40
   3  -3   8  521.35    9.60
   3  -3   8  512.45    9.70
  -3  -3   8  502.05    9.80
   3   3   8  520.25   10.10
   2  -4  -8   36.80    2.70
   4   2  -8   39.40    2.70
   2  -4  -8   39.60    2.70
   4   2   8   40.40    2.80
  -4  -2   8   39.00    2.40
   2  -4   8   44.00    2.30
   0  -4  -8   52.09    3.20
   4   0  -8   54.79    2.90
   4   0   8   49.20    2.80
   0   4   8   54.29    2.40
   0  -4   8   51.99    2.10
   2   4  -8   42.50    2.50
   4  -2  -8   42.20    2.80
   4  -2  -8   39.50    2.70
   4  -2   8   36.70    2.60
   2   4   8   38.60    2.50
  -2  -4   8   40.70    2.40
   4  -4  -8   39.00    3.00
   4   4  -8   44.50    3.00
   4  -4  -8   39.90    3.10
  -4  -4   8   47.00    3.00
   4  -4   8   43.30    2.70
   4   4   8   41.40    3.20
   3  -5  -8  802.22   15.00
   5   3  -8  819.12   15.30
   3  -5  -8  823.12   15.70
   5   3   8  796.62   15.40
  -5  -3   8  796.72   15.20
   3  -5   8  805.22   14.60
   1  -5  -8  458.05   10.10
   5   1  -8  483.65    9.90
   1  -5   8  482.85    9.00
   5   1   8  475.95    9.90
  -1   5   8  471.35    9.10
   5  -1  -8  486.75   10.00
  -1  -5  -8  478.85   10.00
   1   5   8  463.05    9.30
  -1  -5   8  483.95    8.80
   5  -1   8  479.75    9.90
   5  -3  -8  803.12   15.20
   5  -3   8  801.22   14.90
   5  -3   8  798.32   14.60
  -3  -5   8  797.72   15.00
   3   5   8  826.82   15.00
   5  -5  -8   96.99    4.30
   5  -5  -8   87.89    5.10
   5  -5   8   92.19    4.00
   5   5   8   97.69    4.60
  -5  -5   8   92.39    4.50
   4  -6  -8   25.60    3.30
   6   4  -8   28.20    3.00
   4  -6   8   27.40    2.50
   6   4   8   27.10    3.00
  -6  -4   8   29.50    3.10
   6   2  -8    0.20    1.90
   2  -6  -8    2.10    2.30
   2  -6   8    1.20    1.50
   6   2   8    3.00    2.00
   0  -6  -8 1391.06   24.80
   6   0  -8 1360.56   24.70
   0  -6   8 1424.06   23.50
   6   0   8 1383.56   24.60
  -2  -6  -8    3.80    2.00
   6  -2  -8    2.40    1.90
   6  -2   8    2.80    1.60
   6  -2   8   10.80    2.10
   2   6   8    2.50    1.60
  -2  -6   8    1.50    1.60
   6  -4  -8   28.60    2.90
   6  -4   8   25.30    2.50
   4   6   8   28.00    2.80
  -4  -6   8   24.10    2.80
   6  -6  -8  557.24   17.50
  -6  -6   8  627.74   13.70
   6  -6   8  619.64   12.60
   6   6   8  610.74   13.10
   5  -7  -8  546.75   13.00
   7   5   8  549.85   12.50
  -7  -5   8  543.55   12.70
   5  -7   8  534.45   11.70
   7   3  -8   83.29    5.00
   3  -7  -8   86.29    5.20
   7   3   8   81.39    4.90
   3  -7   8   74.99    4.00
   1  -7  -8  696.53   14.40
   7   1  -8  690.33   14.50
   7   1   8  715.93   14.40
   1  -7   8  718.93   13.20
  -1  -7  -8  709.03   14.30
   7  -1  -8  717.53   14.40
   7  -1   8  700.23   14.30
   7  -1   8  692.33   13.10
  -1  -7   8  710.53   13.70
   7  -3  -8   86.09    4.70
  -3  -7  -8   80.99    4.60
  -3  -7   8   94.99    4.50
   7  -3   8   79.19    4.00
  -5  -7   8  554.54   12.50
   7  -5   8  528.55   11.50
   2  -8  -8   37.40    3.80
   8   2  -8   41.90    4.00
   2  -8   8   37.70    2.90
   8   2   8   39.30    3.80
   8   0  -8   34.00    3.70
   0  -8  -8   37.60    3.60
   8   0   8   31.30    3.50
  -2  -8  -8   36.80    3.40
   8  -2  -8   37.90    3.60
   8  -2   8   41.90    2.90
  -2  -8   8   44.30    3.50
   8  -2   8   31.60    3.40
   1   0  -9  706.03   13.10
   1   0   9  698.13   12.50
   0   1   9  704.83   12.50
   2   1  -9  175.48    4.70
   1  -2  -9  170.68    4.80
   2   1   9  172.08    4.40
   1  -2   9  175.58    4.10
   2  -1  -9  174.78    4.80
   1   2  -9  176.38    4.70
   2  -1   9  173.68    4.30
   1   2   9  170.68    4.30
   3   2  -9  997.90   17.20
   2  -3  -9  941.41   17.40
   2  -3  -9  944.61   17.30
  -3  -2   9  949.21   16.70
   2  -3   9  943.61   16.50
   3   2   9  941.91   17.00
   3   0  -9 2466.35   41.90
   0   3   9 2513.35   41.30
   0  -3   9 2565.74   41.10
   3   0   9 2532.15   41.60
   2   3  -9  976.40   16.90
   3  -2  -9  938.71   17.10
   3  -2  -9  927.91   17.00
  -2  -3   9  965.70   16.50
   2   3   9  920.01   16.70
   3  -2   9  929.51   16.60
   3  -4  -9  126.09    4.90
   4   3  -9  119.39    4.30
   3  -4  -9  113.29    4.30
   4   3   9  132.59    4.50
  -4  -3   9  115.89    3.90
   3  -4   9  117.89    3.80
   1  -4  -9  442.16    9.70
   4   1  -9  445.36    9.40
   1  -4   9  442.96    8.50
  -1   4   9  440.76    8.70
   4   1   9  458.65    9.30
   4  -1  -9  443.56    9.40
  -1  -4   9  455.25    8.20
   1   4   9  453.05    8.80
   4  -1   9  431.36    9.10
   3   4  -9  111.29    4.00
   4  -3  -9  118.79    4.60
   4  -3  -9  120.99    4.40
  -3  -4   9  114.29    3.90
   3   4   9  111.79    4.10
   4  -3   9  125.09    4.00
   4  -3   9  116.99    3.80
   5   4  -9  250.57    6.80
   4  -5  -9  239.18    7.30
   4  -5  -9  244.58    6.70
   4  -5   9  240.38    6.10
   5   4   9  251.37    6.90
  -5  -4   9  244.68    6.70
   5   2  -9    0.80    1.70
   2  -5  -9    2.70    2.20
   5   2   9    1.60    1.90
   2  -5   9    1.00    1.40
   0  -5  -9 1137.09   20.80
   5   0  -9 1128.79   20.60
   0  -5   9 1141.49   19.40
   0   5   9 1128.49   19.80
   5   0   9 1166.68   20.60
   5  -2  -9    2.20    1.90
   2   5   9    0.40    1.50
  -2  -5   9    1.30    1.50
   5  -2   9   -0.20    1.60
   5  -4  -9  250.87    6.90
   5  -4  -9  242.38    7.30
   4   5   9  267.27    6.90
   5  -4   9  245.78    6.30
  -4  -5   9  251.17    6.80
   5  -6  -9  348.47    9.90
   5  -6   9  345.17    8.40
  -6  -5   9  349.67    9.20
   6   5   9  347.87    9.00
   6   3  -9  787.52   15.70
   3  -6  -9  790.52   16.20
   6   3   9  804.42   15.70
   3  -6   9  793.02   14.80
   1  -6  -9  228.68    7.10
   6   1  -9  240.38    6.90
   1  -6   9  242.08    5.70
   6   1   9  244.18    6.80
   6  -1  -9  244.88    6.90
  -1  -6  -9  241.78    6.80
   1   6   9  246.98    6.00
   6  -1   9  234.38    6.60
   6  -3  -9  790.72   15.80
   3   6   9  809.32   15.30
  -3  -6   9  801.52   15.50
   6  -3   9  808.32   14.90
   5   6   9  368.86    9.10
  -5  -6   9  371.96    9.40
   6  -5   9  364.76    8.70
   4  -7  -9  206.08    7.70
   7   4  -9  207.38    7.30
   7   4   9  214.08    7.20
   4  -7   9  209.18    6.30
   2  -7  -9  431.86   10.60
   7   2  -9  427.06   10.40
   2  -7   9  433.76    9.10
   7   2   9  411.96   10.20
   7   0  -9    1.60    2.40
   0  -7  -9   -0.10    2.40
   0  -7   9    5.50    2.10
   7   0   9    1.40    2.30
  -2  -7  -9  426.86    9.90
   7  -2  -9  426.76   10.20
   7  -2   9  415.46    9.90
   7  -2   9  420.36    9.00
  -2  -7   9  425.56    9.70
   7  -4  -9  198.98    7.00
   7  -4   9  206.58    6.20
  -4  -7   9  209.28    6.90
   8   1  -9   26.70    3.70
   1  -8  -9   28.20    3.70
   8   1   9   21.50    3.40
   1  -8   9   26.00    2.60
   8  -1  -9   26.90    3.60
  -1  -8  -9   28.80    3.50
  -1  -8   9   24.80    3.00
   8  -1   9   19.70    3.20
   0   0  10 2437.76   40.00
   1   1 -10   30.40    2.60
   1  -1 -10   24.90    2.20
   1   1  10   33.60    2.20
   1  -1  10   29.40    2.10
   2   0 -10 1280.87   22.80
   0   2  10 1285.17   22.20
   0  -2  10 1319.57   22.00
   2   0  10 1314.57   22.30
   2  -2 -10   65.09    3.30
   2   2 -10   67.69    3.40
   2  -2  10   65.79    2.80
   2   2  10   72.19    3.10
   3   1 -10    1.90    1.60
   1  -3  10    0.80    1.10
   3   1  10    0.00    1.40
   3  -1 -10    2.10    1.60
   1   3 -10    0.90    1.50
   1   3  10    0.10    1.30
   3  -3 -10 3489.55   57.19
   3   3 -10 3494.05   56.89
   3  -3 -10 3314.57   57.09
   3   3  10 3503.35   56.79
   3  -3  10 3464.25   56.39
   4   2 -10  462.25    9.90
   2  -4 -10  459.35   10.00
   2  -4 -10  457.65   10.20
   2  -4  10  465.25    9.00
   4   2  10  445.06    9.70
   4   0 -10  211.48    6.00
   0   4  10  218.38    5.40
   4   0  10  228.48    5.90
   0  -4  10  217.88    5.00
   4  -2 -10  458.45   10.00
   2   4  10  461.15    9.40
  -2  -4  10  464.65    9.20
   4  -2  10  448.46    9.40
   4  -4 -10  396.36    9.40
   4   4 -10  426.66    9.20
   4  -4 -10  407.76    9.80
   4  -4  10  400.46    8.60
  -4  -4  10  400.06    9.00
   4   4  10  418.56    9.20
   3  -5 -10   86.99    4.40
   5   3 -10   92.99    4.50
   3  -5 -10   79.39    4.90
   3  -5  10   88.29    3.70
   5   3  10   92.89    4.50
   1  -5 -10  114.99    5.00
   5   1 -10  104.69    4.60
   1  -5  10  107.79    3.70
   5   1  10  106.09    4.40
  -1   5  10  106.49    3.90
   5  -1 -10  111.59    4.70
   5  -1  10  105.29    4.40
   1   5  10  111.89    4.00
   5  -3 -10   99.29    4.70
   3   5  10  101.19    4.30
   5  -3  10   98.09    3.90
  -3  -5  10   99.99    4.20
   5  -5 -10  340.87    8.80
   5  -5 -10  327.07    9.40
  -5  -5  10  342.77    8.70
   5  -5  10  318.77    7.90
   5   5  10  341.67    8.60
   6   4 -10  126.29    5.70
   4  -6 -10  134.39    6.40
   6   4  10  127.39    5.60
   4  -6  10  121.29    4.90
   6   2 -10  435.36   10.30
   2  -6 -10  452.85   10.80
   2  -6  10  431.86    9.10
   6   2  10  435.36   10.20
   0  -6 -10  702.53   14.60
   6   0 -10  714.83   14.70
   0   6  10  707.73   13.50
   0  -6  10  736.03   13.20
   6   0  10  725.43   14.50
   6  -2 -10  430.16   10.40
   2   6  10  465.15    9.70
   6  -2  10  438.16    9.90
   6  -2  10  432.36    9.20
  -2  -6  10  447.96    9.70
   6  -4 -10  128.89    5.70
   6  -4  10  118.09    4.80
   4   6  10  133.89    5.40
  -4  -6  10  121.49    5.30
   7   3 -10  137.79    6.30
   3  -7 -10  148.59    6.80
   7   3  10  132.69    6.00
   3  -7  10  136.79    5.10
   7   1 -10   10.40    2.80
   1  -7 -10    8.10    3.00
   1  -7  10   10.80    2.10
   7   1  10    7.70    2.70
   7  -1 -10    7.00    2.80
  -1  -7 -10    8.00    2.70
   7  -1  10   10.00    2.70
  -1  -7  10    5.70    2.20
   7  -3 -10  128.39    6.00
   7  -3  10  131.89    5.10
  -3  -7  10  139.69    5.60
   1   0 -11   22.60    2.50
   0   1  11   18.90    1.80
   1   0  11   21.60    1.90
   0  -1  11   21.60    1.90
   2   1 -11   15.60    2.10
   2   1  11   16.10    1.90
   1  -2  11   18.60    1.80
   2  -1 -11   16.80    2.30
   1   2 -11   19.70    2.30
   1   2  11   16.10    1.80
   2  -1  11   13.50    1.70
   2  -3 -11    6.20    2.10
   3   2 -11    4.00    1.90
   3   2  11    2.40    1.70
   2  -3  11    4.40    1.40
   3   0 -11 2111.99   36.90
   0   3  11 2171.28   36.20
   0  -3  11 2166.68   35.90
   3   0  11 2212.98   36.50
   3  -2 -11    2.30    1.90
   2   3 -11    3.40    1.80
   2   3  11    1.40    1.60
   3  -2  11    2.80    1.50
   3  -4 -11   62.99    4.20
   3  -4 -11   57.49    4.00
   4   3 -11   61.29    4.00
   4   3  11   55.79    3.90
   3  -4  11   57.59    3.30
   4   1 -11    4.80    2.10
   1  -4  11    3.60    1.50
  -1   4  11    3.20    1.70
   4   1  11    2.50    1.80
   4  -1 -11    1.70    1.90
   4  -1  11   10.50    2.00
   1   4  11    2.70    1.60
   4  -3 -11   50.19    4.10
   3   4  11   65.59    3.80
   4  -5 -11    2.10    2.40
   4  -5 -11    4.00    3.10
   4  -5  11    2.00    2.00
   5   4  11    0.70    2.40
   2  -5 -11   68.09    4.80
   5   2 -11   63.39    4.30
   2  -5  11   66.59    3.40
  -2   5  11   70.89    3.70
   5   2  11   67.09    4.20
   5   0 -11    2.00    2.20
   0   5  11    4.20    1.80
   0  -5  11    1.10    1.50
   5   0  11    1.70    2.00
   5  -2 -11   77.59    4.60
  -2  -5  11   66.29    3.60
   2   5  11   68.29    3.90
   5  -2  11   68.29    3.90
   5  -4 -11   -0.10    2.40
   4   5  11   -0.90    2.20
   5  -4  11    3.20    2.10
   3  -6 -11  912.91   18.90
   6   3 -11  910.11   18.40
   6   3  11  957.60   18.30
   3  -6  11  917.51   17.10
   6   1 -11   21.00    3.10
   1  -6 -11   20.10    3.20
   6   1  11   22.20    3.10
  -1   6  11   22.20    2.90
   1  -6  11   22.10    2.30
   6  -1 -11   24.40    3.20
   1   6  11   22.80    2.50
  -1  -6  11   20.60    2.60
   6  -1  11   19.30    2.80
   6  -3 -11  918.81   18.40
   3   6  11  950.40   17.70
   6  -3  11  921.71   17.30
  -3  -6  11  933.01   17.80
   0  -7 -11   89.49    5.50
   7   0 -11   77.49    5.40
   7   0  11   75.59    5.10
   0   0  12 1469.05   25.20
   1  -1  12  127.19    4.10
   1   1  12  124.89    4.20
   2   0 -12  828.22   16.20
   0  -2  12  849.41   15.20
   0   2  12  830.62   15.40
   2   0  12  845.82   15.50
   2  -2 -12  105.79    4.80
   2   2 -12  108.29    4.70
   2  -2  12  105.89    3.90
   2   2  12  102.79    4.10
   3   1 -12   16.40    2.50
   1  -3  12   16.80    1.90
  -1   3  12   16.50    2.10
   3   1  12   14.30    2.20
   3  -1 -12   17.70    2.60
   1   3  12   17.10    2.20
   3  -1  12   16.90    2.10
   3   3 -12  178.58    6.00
   3  -3 -12  185.78    6.30
   3   3  12  184.98    5.70
   4   2 -12  114.49    5.10
   2  -4  12  109.29    4.00
   4   2  12  110.19    4.70
   4   0 -12  456.55   10.80
   0   4  12  482.65    9.90
   4   0  12  480.45   10.30
   0  -4  12  482.25    9.30
   4  -2 -12  110.99    5.20
   2   4  12  111.09    4.50
   4  -2  12  109.19    4.40
   4  -4 -12   73.69    5.30
   4  -4 -12   81.09    5.00
   4  -4  12   76.29    4.10
   4   4  12   71.89    4.50
   3  -5 -12   26.10    3.70
   5   3 -12   35.20    3.50
   5   3  12   37.90    3.50
   3  -5  12   35.60    2.80
   5   1 -12   78.49    4.80
   5   1  12   78.19    4.50
  -1   5  12   82.19    4.00
   1  -5  12   78.09    3.70
   5  -1 -12   81.19    4.90
   1   5  12   80.39    4.10
   5  -1  12   78.89    4.40
   5  -3 -12   37.60    3.70
   5  -3  12   36.20    3.00
   3   5  12   36.90    3.20
   2  -6 -12  423.06   11.10
   6   2 -12  420.36   10.70
   6   2  12  420.06   10.30
   2  -6  12  411.46    9.20
   6   0 -12  810.52   16.90
   6   0  12  827.62   16.50
   0   6  12  839.22   15.70
   6  -2 -12  420.46   10.80
   6  -2  12  422.26   10.10
  -2  -6  12  424.66    9.90
   2   6  12  434.66    9.90
   1   0  13  210.68    5.70
   0   1  13  218.28    5.80
   0  -1  13  210.88    5.60
  -1   0  13  215.08    5.80
   2   1 -13  154.68    5.80
   1  -2  13  154.28    4.70
  -1   2  13  150.58    5.10
   2   1  13  152.68    5.00
   2  -1 -13  144.89    5.70
   2  -1  13  145.29    4.80
   1   2  13  140.99    4.80
  -1  -2  13  148.99    4.60
   3   2 -13  328.27    8.60
   3   2  13  316.27    8.00
   3   0 -13    0.40    2.10
   3   0  13    3.40    1.90
   0  -3  13    3.30    1.60
   0   3  13    3.10    1.90
   3  -2 -13  309.67    8.60
   2   3 -13  309.67    8.40
   3  -2  13  321.77    7.60
   2   3  13  315.67    7.70
   4   3 -13   34.90    3.50
   3  -4 -13   32.70    3.60
   4   3  13   30.50    3.10
   3  -4  13   35.20    2.90
   4   1 -13   61.09    4.70
  -1   4  13   61.59    4.00
   1  -4  13   54.69    3.30
   4   1  13   61.59    4.10
   4  -1 -13   63.09    4.70
   4  -1  13   58.49    4.00
   1   4  13   61.29    3.90
   4  -3 -13   35.60    3.70
   3   4  13   34.80    3.30
   5   2 -13  195.78    7.20
  -2   5  13  214.08    6.40
   5   2  13  202.28    6.80
   2  -5  13  196.28    5.90
   5   0 -13  417.16   10.60
   5   0  13  419.26   10.00
   0   5  13  423.16    9.50
   5  -2 -13  204.08    7.40
   5  -2  13  201.28    6.50
   2   5  13  205.18    6.50
   0   0  14  880.11   16.40
  -1  -1  14  106.09    4.50
   1   1  14  106.49    4.50
   1  -1  14  117.69    4.50
  -1   1  14  110.69    4.70
   2   0 -14   37.70    3.60
   0  -2  14   36.70    3.20
   0   2  14   42.20    3.60
   2   0  14   36.40    3.00
   2   2 -14 1168.28   22.20
   2   2  14 1154.88   21.30
   2  -2  14 1176.28   21.00
   3   1 -14  243.58    7.80
   3   1  14  253.17    7.10
  -1   3  14  261.87    7.10
   3  -1 -14  241.08    7.90
   3  -1  14  251.47    6.90
   1   3  14  252.77    6.90
  -1  -3  14  248.58    6.80
   3   3 -14   33.30    3.70
   3  -3 -14   34.90    3.80
   3   3  14   32.10    3.30
   4   2 -14  542.75   12.60
   4   2  14  516.75   11.80
  -2   4  14  546.95   11.70
   2  -4  14  526.95   11.00
   4   0 -14   83.99    5.40
   4   0  14   90.99    4.80
   0   4  14   91.59    4.60
   4  -2 -14  503.55   12.40
   2   4  14  512.35   11.30
   4  -2  14  518.15   11.20
   0  -1  15   23.90    2.70
   0   1  15   28.30    2.80
   1   0  15   26.80    2.90
  -1   0  15   26.10    2.90
   1  -2  15  397.86    9.10
  -1   2  15  409.86    9.60
   2   1  15  391.76    9.50
  -2   1  15  397.86    9.50
   1   2  15  396.36    9.40
  -1  -2  15  397.36    9.10
   2  -1  15  395.46    9.30

_computing_structure_solution     'SHELXT 2014/4 (Sheldrick, 2014)'
;
_shelx_hkl_checksum              48984
loop_
_space_group_symop_operation_xyz
'x, y, z'
'-x, -y, z'
'-y, x, z'
'y, -x, z'
'-x, y, -z'
'x, -y, -z'
'y, x, -z'
'-y, -x, -z'
'x+1/2, y+1/2, z+1/2'
'-x+1/2, -y+1/2, z+1/2'
'-y+1/2, x+1/2, z+1/2'
'y+1/2, -x+1/2, z+1/2'
'-x+1/2, y+1/2, -z+1/2'
'x+1/2, -y+1/2, -z+1/2'
'y+1/2, x+1/2, -z+1/2'
'-y+1/2, -x+1/2, -z+1/2'
'-x, -y, -z'
'x, y, -z'
'y, -x, -z'
'-y, x, -z'
'x, -y, z'
'-x, y, z'
'-y, -x, z'
'y, x, z'
'-x+1/2, -y+1/2, -z+1/2'
'x+1/2, y+1/2, -z+1/2'
'y+1/2, -x+1/2, -z+1/2'
'-y+1/2, x+1/2, -z+1/2'
'x+1/2, -y+1/2, z+1/2'
'-x+1/2, y+1/2, z+1/2'
'-y+1/2, -x+1/2, z+1/2'
'y+1/2, x+1/2, z+1/2'
loop_
_atom_site_label
_atom_site_type_symbol
_atom_site_fract_x
_atom_site_fract_y
_atom_site_fract_z
_atom_site_U_iso_or_equiv
_atom_site_adp_type
_atom_site_occupancy
_atom_site_site_symmetry_order
_atom_site_calc_flag
_atom_site_refinement_flags_posn
_atom_site_refinement_flags_adp
_atom_site_refinement_flags_occupancy
Sr01 Sr 0.5000 0.5000 0.32894(4) 0.01193(13) Uani 1 8 d S T P
Sr02 Sr 0.5000 1.0000 0.7500 0.01060(12) Uani 1 8 d S T P
Ge01 Ge 0.5000 0.83724(5) 0.5000 0.01085(11) Uani 1 4 d S T P
Ge02 Ge 0.18272(3) 0.81728(3) 0.39453(3) 0.01699(11) Uani 1 2 d S T P
loop_
_atom_site_aniso_label
_atom_site_aniso_U_11
_atom_site_aniso_U_22
_atom_site_aniso_U_33
_atom_site_aniso_U_23
_atom_site_aniso_U_13
_atom_site_aniso_U_12
Sr01 0.01262(17) 0.01262(17) 0.0105(2) 0.000 0.000 0.000
Sr02 0.01153(17) 0.01153(17) 0.0087(2) 0.000 0.000 0.000
Ge01 0.0111(2) 0.0106(2) 0.0109(2) 0.000 0.000 0.000
Ge02 0.01837(13) 0.01837(13) 0.01425(17) 0.00184(9) -0.00184(9) -0.00537(12)
loop_
_atom_type_symbol
_atom_type_description
_atom_type_scat_dispersion_real
_atom_type_scat_dispersion_imag
_atom_type_scat_source
Ge Ge 0.1547 1.8001 'International Tables Vol C Tables 4.2.6.8 and 6.1.1.4'
Sr Sr -1.5307 3.2498 'International Tables Vol C Tables 4.2.6.8 and 6.1.1.4'
loop_
_geom_angle_atom_site_label_1
_geom_angle_atom_site_label_2
_geom_angle_atom_site_label_3
_geom_angle
_geom_angle_site_symmetry_1
_geom_angle_site_symmetry_3
Ge01 Sr01 Ge01 67.549(10) . 19_566
Ge01 Sr01 Ge01 67.549(10) . 3_655
Ge01 Sr01 Ge01 103.663(19) 19_566 3_655
Ge01 Sr01 Ge01 103.663(19) . 17_666
Ge01 Sr01 Ge01 67.549(10) 19_566 17_666
Ge01 Sr01 Ge01 67.549(10) 3_655 17_666
Ge01 Sr01 Ge02 145.869(7) . 27_455
Ge01 Sr01 Ge02 145.869(7) 19_566 27_455
Ge01 Sr01 Ge02 99.370(10) 3_655 27_455
Ge01 Sr01 Ge02 99.370(10) 17_666 27_455
Ge01 Sr01 Ge02 145.869(7) . 26_545
Ge01 Sr01 Ge02 99.370(10) 19_566 26_545
Ge01 Sr01 Ge02 145.869(7) 3_655 26_545
Ge01 Sr01 Ge02 99.370(10) 17_666 26_545
Ge02 Sr01 Ge02 50.034(11) 27_455 26_545
Ge01 Sr01 Ge02 99.370(10) . 25_565
Ge01 Sr01 Ge02 145.869(6) 19_566 25_565
Ge01 Sr01 Ge02 99.370(10) 3_655 25_565
Ge01 Sr01 Ge02 145.869(7) 17_666 25_565
Ge02 Sr01 Ge02 50.034(11) 27_455 25_565
Ge02 Sr01 Ge02 73.462(18) 26_545 25_565
Ge01 Sr01 Ge02 99.370(10) . 28_655
Ge01 Sr01 Ge02 99.370(10) 19_566 28_655
Ge01 Sr01 Ge02 145.869(7) 3_655 28_655
Ge01 Sr01 Ge02 145.869(7) 17_666 28_655
Ge02 Sr01 Ge02 73.462(18) 27_455 28_655
Ge02 Sr01 Ge02 50.034(11) 26_545 28_655
Ge02 Sr01 Ge02 50.034(11) 25_565 28_655
Ge01 Sr01 Ge02 47.257(5) . .
Ge01 Sr01 Ge02 113.933(13) 19_566 .
Ge01 Sr01 Ge02 47.257(5) 3_655 .
Ge01 Sr01 Ge02 113.933(13) 17_666 .
Ge02 Sr01 Ge02 100.199(8) 27_455 .
Ge02 Sr01 Ge02 139.494(15) 26_545 .
Ge02 Sr01 Ge02 66.032(11) 25_565 .
Ge02 Sr01 Ge02 100.199(8) 28_655 .
Ge01 Sr01 Ge02 47.257(5) . 4_565
Ge01 Sr01 Ge02 47.257(5) 19_566 4_565
Ge01 Sr01 Ge02 113.933(13) 3_655 4_565
Ge01 Sr01 Ge02 113.933(13) 17_666 4_565
Ge02 Sr01 Ge02 139.493(15) 27_455 4_565
Ge02 Sr01 Ge02 100.198(8) 26_545 4_565
Ge02 Sr01 Ge02 100.198(8) 25_565 4_565
Ge02 Sr01 Ge02 66.032(11) 28_655 4_565
Ge02 Sr01 Ge02 87.203(4) . 4_565
Ge01 Sr01 Ge02 113.933(13) . 3_655
Ge01 Sr01 Ge02 113.933(13) 19_566 3_655
Ge01 Sr01 Ge02 47.257(5) 3_655 3_655
Ge01 Sr01 Ge02 47.257(5) 17_666 3_655
Ge02 Sr01 Ge02 66.032(11) 27_455 3_655
Ge02 Sr01 Ge02 100.198(8) 26_545 3_655
Ge02 Sr01 Ge02 100.198(8) 25_565 3_655
Ge02 Sr01 Ge02 139.493(15) 28_655 3_655
Ge02 Sr01 Ge02 87.203(4) . 3_655
Ge02 Sr01 Ge02 154.47(2) 4_565 3_655
Ge01 Sr01 Ge02 113.933(13) . 2_665
Ge01 Sr01 Ge02 47.257(5) 19_566 2_665
Ge01 Sr01 Ge02 113.933(13) 3_655 2_665
Ge01 Sr01 Ge02 47.257(5) 17_666 2_665
Ge02 Sr01 Ge02 100.198(8) 27_455 2_665
Ge02 Sr01 Ge02 66.032(11) 26_545 2_665
Ge02 Sr01 Ge02 139.493(15) 25_565 2_665
Ge02 Sr01 Ge02 100.198(8) 28_655 2_665
Ge02 Sr01 Ge02 154.47(2) . 2_665
Ge02 Sr01 Ge02 87.203(4) 4_565 2_665
Ge02 Sr01 Ge02 87.203(4) 3_655 2_665
Ge01 Sr02 Ge01 45.577(15) 11_655 27_466
Ge01 Sr02 Ge01 148.209(10) 11_655 17_676
Ge01 Sr02 Ge01 148.209(10) 27_466 17_676
Ge01 Sr02 Ge01 148.209(10) 11_655 .
Ge01 Sr02 Ge01 148.209(10) 27_466 .
Ge01 Sr02 Ge01 45.577(15) 17_676 .
Ge01 Sr02 Ge02 140.121(7) 11_655 18_556
Ge01 Sr02 Ge02 101.230(10) 27_466 18_556
Ge01 Sr02 Ge02 71.568(8) 17_676 18_556
Ge01 Sr02 Ge02 49.762(6) . 18_556
Ge01 Sr02 Ge02 49.762(6) 11_655 9
Ge01 Sr02 Ge02 71.568(8) 27_466 9
Ge01 Sr02 Ge02 101.230(10) 17_676 9
Ge01 Sr02 Ge02 140.122(7) . 9
Ge02 Sr02 Ge02 154.382(12) 18_556 9
Ge01 Sr02 Ge02 140.121(7) 11_655 20_666
Ge01 Sr02 Ge02 101.230(10) 27_466 20_666
Ge01 Sr02 Ge02 49.762(6) 17_676 20_666
Ge01 Sr02 Ge02 71.568(8) . 20_666
Ge02 Sr02 Ge02 50.392(11) 18_556 20_666
Ge02 Sr02 Ge02 105.800(6) 9 20_666
Ge01 Sr02 Ge02 71.568(8) 11_655 12_465
Ge01 Sr02 Ge02 49.762(6) 27_466 12_465
Ge01 Sr02 Ge02 101.230(10) 17_676 12_465
Ge01 Sr02 Ge02 140.122(7) . 12_465
Ge02 Sr02 Ge02 105.800(6) 18_556 12_465
Ge02 Sr02 Ge02 50.392(11) 9 12_465
Ge02 Sr02 Ge02 69.076(11) 20_666 12_465
Ge01 Sr02 Ge02 71.568(8) 11_655 10_565
Ge01 Sr02 Ge02 49.762(6) 27_466 10_565
Ge01 Sr02 Ge02 140.121(7) 17_676 10_565
Ge01 Sr02 Ge02 101.229(10) . 10_565
Ge02 Sr02 Ge02 69.076(11) 18_556 10_565
Ge02 Sr02 Ge02 117.093(12) 9 10_565
Ge02 Sr02 Ge02 105.800(6) 20_666 10_565
Ge02 Sr02 Ge02 95.335(13) 12_465 10_565
Ge01 Sr02 Ge02 101.230(10) 11_655 17_676
Ge01 Sr02 Ge02 140.121(7) 27_466 17_676
Ge01 Sr02 Ge02 49.762(6) 17_676 17_676
Ge01 Sr02 Ge02 71.568(8) . 17_676
Ge02 Sr02 Ge02 117.093(12) 18_556 17_676
Ge02 Sr02 Ge02 69.076(11) 9 17_676
Ge02 Sr02 Ge02 95.335(12) 20_666 17_676
Ge02 Sr02 Ge02 105.800(6) 12_465 17_676
Ge02 Sr02 Ge02 154.382(12) 10_565 17_676
Ge01 Sr02 Ge02 101.230(10) 11_655 19_566
Ge01 Sr02 Ge02 140.121(7) 27_466 19_566
Ge01 Sr02 Ge02 71.568(8) 17_676 19_566
Ge01 Sr02 Ge02 49.762(6) . 19_566
Ge02 Sr02 Ge02 95.335(13) 18_556 19_566
Ge02 Sr02 Ge02 105.800(6) 9 19_566
Ge02 Sr02 Ge02 117.093(12) 20_666 19_566
Ge02 Sr02 Ge02 154.382(12) 12_465 19_566
Ge02 Sr02 Ge02 105.800(6) 10_565 19_566
Ge02 Sr02 Ge02 50.392(11) 17_676 19_566
Ge01 Sr02 Ge02 49.762(6) 11_655 11_655
Ge01 Sr02 Ge02 71.568(8) 27_466 11_655
Ge01 Sr02 Ge02 140.121(7) 17_676 11_655
Ge01 Sr02 Ge02 101.229(10) . 11_655
Ge02 Sr02 Ge02 105.800(6) 18_556 11_655
Ge02 Sr02 Ge02 95.335(13) 9 11_655
Ge02 Sr02 Ge02 154.382(12) 20_666 11_655
Ge02 Sr02 Ge02 117.093(12) 12_465 11_655
Ge02 Sr02 Ge02 50.392(11) 10_565 11_655
Ge02 Sr02 Ge02 105.800(6) 17_676 11_655
Ge02 Sr02 Ge02 69.076(11) 19_566 11_655
Ge01 Ge01 Ge02 93.201(10) 17_676 .
Ge01 Ge01 Ge02 93.200(10) 17_676 19_566
Ge02 Ge01 Ge02 173.60(2) . 19_566
Ge01 Ge01 Ge02 93.200(10) 17_676 18_556
Ge02 Ge01 Ge02 54.418(14) . 18_556
Ge02 Ge01 Ge02 125.144(15) 19_566 18_556
Ge01 Ge01 Ge02 93.200(10) 17_676 4_565
Ge02 Ge01 Ge02 125.144(15) . 4_565
Ge02 Ge01 Ge02 54.419(14) 19_566 4_565
Ge02 Ge01 Ge02 173.60(2) 18_556 4_565
Ge01 Ge01 Sr02 67.211(7) 17_676 .
Ge02 Ge01 Sr02 116.306(9) . .
Ge02 Ge01 Sr02 66.426(7) 19_566 .
Ge02 Ge01 Sr02 66.426(7) 18_556 .
Ge02 Ge01 Sr02 116.306(9) 4_565 .
Ge01 Ge01 Sr02 67.211(7) 17_676 17_676
Ge02 Ge01 Sr02 66.427(7) . 17_676
Ge02 Ge01 Sr02 116.306(9) 19_566 17_676
Ge02 Ge01 Sr02 116.306(9) 18_556 17_676
Ge02 Ge01 Sr02 66.426(7) 4_565 17_676
Sr02 Ge01 Sr02 134.423(15) . 17_676
Ge01 Ge01 Sr01 141.831(9) 17_676 .
Ge02 Ge01 Sr01 70.946(10) . .
Ge02 Ge01 Sr01 103.808(11) 19_566 .
Ge02 Ge01 Sr01 103.808(11) 18_556 .
Ge02 Ge01 Sr01 70.946(10) 4_565 .
Sr02 Ge01 Sr01 150.957(13) . .
Sr02 Ge01 Sr01 74.620(11) 17_676 .
Ge01 Ge01 Sr01 141.831(9) 17_676 17_666
Ge02 Ge01 Sr01 103.808(11) . 17_666
Ge02 Ge01 Sr01 70.946(10) 19_566 17_666
Ge02 Ge01 Sr01 70.946(10) 18_556 17_666
Ge02 Ge01 Sr01 103.809(11) 4_565 17_666
Sr02 Ge01 Sr01 74.619(10) . 17_666
Sr02 Ge01 Sr01 150.958(13) 17_676 17_666
Sr01 Ge01 Sr01 76.338(19) . 17_666
Ge02 Ge02 Ge01 62.792(7) 18_556 .
Ge02 Ge02 Ge01 62.792(7) 18_556 3_655
Ge01 Ge02 Ge01 83.688(18) . 3_655
Ge02 Ge02 Ge02 90.0 18_556 4_465
Ge01 Ge02 Ge02 152.573(7) . 4_465
Ge01 Ge02 Ge02 86.800(10) 3_655 4_465
Ge02 Ge02 Ge02 90.0 18_556 3_665
Ge01 Ge02 Ge02 86.800(10) . 3_665
Ge01 Ge02 Ge02 152.573(7) 3_655 3_665
Ge02 Ge02 Ge02 90.0 4_465 3_665
Ge02 Ge02 Sr02 121.454(6) 18_556 9_444
Ge01 Ge02 Sr02 131.127(14) . 9_444
Ge01 Ge02 Sr02 63.812(8) 3_655 9_444
Ge02 Ge02 Sr02 64.804(6) 4_465 9_444
Ge02 Ge02 Sr02 137.666(6) 3_665 9_444
Ge02 Ge02 Sr02 121.454(6) 18_556 17_676
Ge01 Ge02 Sr02 63.812(8) . 17_676
Ge01 Ge02 Sr02 131.127(14) 3_655 17_676
Ge02 Ge02 Sr02 137.666(6) 4_465 17_676
Ge02 Ge02 Sr02 64.804(6) 3_665 17_676
Sr02 Ge02 Sr02 110.924(12) 9_444 17_676
Ge02 Ge02 Sr01 143.268(9) 18_556 25_565
Ge01 Ge02 Sr01 135.906(8) . 25_565
Ge01 Ge02 Sr01 135.905(8) 3_655 25_565
Ge02 Ge02 Sr01 64.982(6) 4_465 25_565
Ge02 Ge02 Sr01 64.982(6) 3_665 25_565
Sr02 Ge02 Sr01 73.404(8) 9_444 25_565
Sr02 Ge02 Sr01 73.404(8) 17_676 25_565
Ge02 Ge02 Sr01 102.764(10) 18_556 .
Ge01 Ge02 Sr01 61.797(11) . .
Ge01 Ge02 Sr01 61.797(11) 3_655 .
Ge02 Ge02 Sr01 133.601(2) 4_465 .
Ge02 Ge02 Sr01 133.601(2) 3_665 .
Sr02 Ge02 Sr01 70.640(7) 9_444 .
Sr02 Ge02 Sr01 70.640(7) 17_676 .
Sr01 Ge02 Sr01 113.968(11) 25_565 .
loop_
_geom_bond_atom_site_label_1
_geom_bond_atom_site_label_2
_geom_bond_distance
_geom_bond_site_symmetry_2
Sr01 Ge01 3.3373(5) .
Sr01 Ge01 3.3373(5) 19_566
Sr01 Ge01 3.3373(5) 3_655
Sr01 Ge01 3.3373(5) 17_666
Sr01 Ge02 3.3615(6) 27_455
Sr01 Ge02 3.3615(6) 26_545
Sr01 Ge02 3.3615(6) 25_565
Sr01 Ge02 3.3615(6) 28_655
Sr01 Ge02 3.5794(5) .
Sr01 Ge02 3.5794(5) 4_565
Sr01 Ge02 3.5794(5) 3_655
Sr01 Ge02 3.5794(5) 2_665
Sr02 Ge01 3.2692(4) 11_655
Sr02 Ge01 3.2692(4) 27_466
Sr02 Ge01 3.2692(3) 17_676
Sr02 Ge01 3.2692(3) .
Sr02 Ge02 3.3392(3) 18_556
Sr02 Ge02 3.3392(3) 9
Sr02 Ge02 3.3392(3) 20_666
Sr02 Ge02 3.3392(3) 12_465
Sr02 Ge02 3.3392(3) 10_565
Sr02 Ge02 3.3392(3) 17_676
Sr02 Ge02 3.3392(3) 19_566
Sr02 Ge02 3.3392(3) 11_655
Ge01 Ge01 2.5325(9) 17_676
Ge01 Ge02 2.7811(3) .
Ge01 Ge02 2.7811(3) 19_566
Ge01 Ge02 2.7811(3) 18_556
Ge01 Ge02 2.7811(3) 4_565
Ge01 Sr02 3.2692(3) 17_676
Ge01 Sr01 3.3373(5) 17_666
Ge02 Ge02 2.5432(7) 18_556
Ge02 Ge01 2.7811(3) 3_655
Ge02 Ge02 2.8431(6) 4_465
Ge02 Ge02 2.8431(6) 3_665
Ge02 Sr02 3.3392(3) 9_444
Ge02 Sr02 3.3392(3) 17_676
Ge02 Sr01 3.3615(6) 25_565
