#------------------------------------------------------------------------------
#$Date: 2015-07-08 23:43:11 +0300 (Wed, 08 Jul 2015) $
#$Revision: 141347 $
#$URL: svn://www.crystallography.net/cod/cif/4/34/33/4343333.cif $
#------------------------------------------------------------------------------
#
# This file is available in the Crystallography Open Database (COD),
# http://www.crystallography.net/
#
# All data on this site have been placed in the public domain by the
# contributors.
#
data_4343333
loop_
_publ_author_name
'Ade, Martin'
'Hillebrecht, Harald'
_publ_section_title
;
 Ternary Borides Cr2AlB2, Cr3AlB4, and Cr4AlB6: The First Members of the
 Series (CrB2)nCrAl with n = 1, 2, 3 and a Unifying Concept for Ternary
 Borides as MAB-Phases.
;
_journal_issue                   13
_journal_name_full               'Inorganic chemistry'
_journal_page_first              6122
_journal_page_last               6135
_journal_paper_doi               10.1021/acs.inorgchem.5b00049
_journal_volume                  54
_journal_year                    2015
_chemical_formula_sum            'B Mo'
_chemical_formula_weight         106.75
_chemical_name_systematic
;
 ?
;
_space_group_crystal_system      orthorhombic
_space_group_IT_number           63
_space_group_name_Hall           '-C 2c 2'
_space_group_name_H-M_alt        'C m c m'
_symmetry_space_group_name_Hall  '-C 2c 2'
_symmetry_space_group_name_H-M   'C m c m'
_audit_creation_method           SHELXL-2013
_cell_angle_alpha                90
_cell_angle_beta                 90
_cell_angle_gamma                90
_cell_formula_units_Z            4
_cell_length_a                   3.1418(2)
_cell_length_b                   8.4961(6)
_cell_length_c                   3.0721(2)
_cell_measurement_reflns_used    25
_cell_measurement_temperature    293(2)
_cell_measurement_theta_max      30
_cell_measurement_theta_min      20
_cell_volume                     82.004(9)
_computing_cell_refinement       'Software for Cad4, Nonius'
_computing_data_collection       'Software for CAD4, Nonius'
_computing_data_reduction        'Software for Cad4, Nonius'
_computing_molecular_graphics    'Diamond (Crystal impact, 2005)'
_computing_publication_material  'SHELXL-97_(Sheldrick, 2008)'
_computing_structure_refinement  'SHELXL-2013 (Sheldrick, 2013)'
_computing_structure_solution    'SHELXS-97 (Sheldrick, 2008)'
_diffrn_ambient_temperature      293(2)
_diffrn_measured_fraction_theta_full 0.969
_diffrn_measured_fraction_theta_max 0.994
_diffrn_measurement_details
; 
0.80 deggee +/- 0.50 tan theta
exposure time 60s 
;
_diffrn_measurement_device       '4-circle goniometer'
_diffrn_measurement_device_type  CAD4
_diffrn_measurement_method       omega_2theta_scan
_diffrn_radiation_collimation    '0.5 mm diameter, multiple pinhole'
_diffrn_radiation_monochromator  'plane graphite'
_diffrn_radiation_polarisn_norm  0
_diffrn_radiation_type           MoK\a
_diffrn_radiation_wavelength     0.71069
_diffrn_reflns_av_R_equivalents  0.0430
_diffrn_reflns_av_unetI/netI     0.0344
_diffrn_reflns_laue_measured_fraction_full 0.969
_diffrn_reflns_laue_measured_fraction_max 0.994
_diffrn_reflns_limit_h_max       5
_diffrn_reflns_limit_h_min       -5
_diffrn_reflns_limit_k_max       14
_diffrn_reflns_limit_k_min       -10
_diffrn_reflns_limit_l_max       5
_diffrn_reflns_limit_l_min       0
_diffrn_reflns_number            256
_diffrn_reflns_point_group_measured_fraction_full 0.969
_diffrn_reflns_point_group_measured_fraction_max 0.994
_diffrn_reflns_theta_full        25.240
_diffrn_reflns_theta_max         35.969
_diffrn_reflns_theta_min         6.926
_diffrn_source
'sealed X-ray tube, 12 x 0.4 mm long-fine focus'
_diffrn_source_current           40
_diffrn_source_power             2.00
_diffrn_source_voltage           50
_exptl_absorpt_coefficient_mu    14.666
_exptl_absorpt_correction_T_max  0.534
_exptl_absorpt_correction_T_min  0.330
_exptl_absorpt_correction_type   numerical
_exptl_absorpt_process_details   psi_scan_method
_exptl_crystal_colour            black
_exptl_crystal_density_diffrn    8.647
_exptl_crystal_description       flat_rod
_exptl_crystal_F_000             188
_exptl_crystal_size_max          0.1
_exptl_crystal_size_mid          0.05
_exptl_crystal_size_min          0.02
_exptl_transmission_factor_max   0.534
_exptl_transmission_factor_min   0.330
_refine_diff_density_max         2.187
_refine_diff_density_min         -2.516
_refine_diff_density_rms         0.444
_refine_ls_extinction_coef       0.027(10)
_refine_ls_extinction_expression Fc^*^=kFc[1+0.001xFc^2^\l^3^/sin(2\q)]^-1/4^
_refine_ls_extinction_method     SHELXL
_refine_ls_goodness_of_fit_ref   1.117
_refine_ls_hydrogen_treatment    undef
_refine_ls_matrix_type           full
_refine_ls_number_parameters     11
_refine_ls_number_reflns         120
_refine_ls_number_restraints     0
_refine_ls_restrained_S_all      1.117
_refine_ls_R_factor_all          0.0263
_refine_ls_R_factor_gt           0.0257
_refine_ls_shift/su_max          0.003
_refine_ls_shift/su_mean         0.001
_refine_ls_structure_factor_coef Fsqd
_refine_ls_weighting_details
'w=1/[\s^2^(Fo^2^)+(0.0402P)^2^+1.0800P] where P=(Fo^2^+2Fc^2^)/3'
_refine_ls_weighting_scheme      calc
_refine_ls_wR_factor_gt          0.0645
_refine_ls_wR_factor_ref         0.0647
_reflns_Friedel_coverage         0.000
_reflns_number_gt                117
_reflns_number_total             120
_reflns_threshold_expression     'I > 2\s(I)'
_cod_data_source_file            MoB.cif
_cod_data_source_block           MoB
_cod_depositor_comments
'Adding full bibliography for 4343328--4343335.cif.'
_cod_database_code               4343333
_shelx_space_group_comment
;
The symmetry employed for this shelxl refinement is uniquely defined
by the following loop, which should always be used as a source of
symmetry information in preference to the above space-group names.
They are only intended as comments.
;
_shelxl_version_number           2013-4
_shelx_res_file
;
TITL MOB in Cmcm
CELL 0.71073   3.1418   8.4961   3.0721  90.000  90.000  90.000
ZERR    4.00   0.0002   0.0006   0.0002   0.000   0.000   0.000
LATT  7
SYMM -X, -Y, 0.5+Z
SYMM -X, Y, 0.5-Z
SYMM X, -Y, -Z
SFAC B MO
UNIT 4 4
L.S. 4
BOND
OMIT 0 72
OMIT 0 2 0
OMIT 0 6 0
OMIT 0 4 0
OMIT 0 4 1
OMIT 5 1 4
OMIT 0 6 1
OMIT 0 2 1
OMIT 0 4 2
OMIT 0 0 4
FMAP 2
ACTA
PLAN 20
WGHT    0.040200    1.080000
EXTI    0.026815
FVAR       0.65057
MOLE   1
MO    2    0.500000    0.354834    0.250000    10.25000    0.00235    0.00579 =
         0.00577    0.00000    0.00000    0.00000
B     1    0.000000    0.439998   -0.250000     0.21299    0.00286    0.00444 =
         0.00771    0.00000    0.00000    0.00000
HKLF 4

REM  MOB in Cmcm
REM R1 =  0.0257 for     117 Fo > 4sig(Fo)  and  0.0263 for all     120 data
REM     11 parameters refined using      0 restraints

END

WGHT      0.0395      0.6779

REM Highest difference peak  2.187,  deepest hole -2.516,  1-sigma level  0.444
Q1    1   0.4231  0.4210  0.2500  10.50000  0.05    2.19
Q2    1   0.5000  0.2968  0.2500  10.25000  0.05    1.68
Q3    1   0.5000  0.3487  0.0126  10.50000  0.05    1.30
Q4    1   0.2102  0.2773  0.2500  10.50000  0.05    1.03
Q5    1   0.1661  0.3524  0.1431  11.00000  0.05    1.00
Q6    1   0.2161  0.4398  0.2500  10.50000  0.05    0.99
Q7    1   0.0000  0.4950 -0.2500  10.25000  0.05    0.98
Q8    1   0.0000  0.3653  0.1219  10.50000  0.05    0.96
Q9    1   0.0000  0.2586  0.2500  10.25000  0.05    0.92
Q10   1   0.5000  0.3518 -0.2500  10.25000  0.05    0.83
Q11   1   0.3856  0.4864 -0.1369  11.00000  0.05    0.60
Q12   1  -0.5000  0.4095 -0.2500  10.25000  0.05    0.54
Q13   1   0.2987  0.3126 -0.1644  11.00000  0.05    0.52
Q14   1   0.1814  0.3621 -0.1329  11.00000  0.05    0.44
Q15   1   0.3608  0.2800 -0.0098  11.00000  0.05    0.44
Q16   1   0.1782  0.4743 -0.0586  11.00000  0.05    0.31
Q17   1   0.4153  0.4202 -0.0070  11.00000  0.05    0.29
Q18   1   0.0000  0.3083 -0.2500  10.25000  0.05    0.25
;
_shelx_res_checksum              18067
_shelx_hkl_file
;
   2   0   0 4477.40   24.60
   4   0   0 1889.10   21.40
   6   0   0  632.80   17.10
   6   0   1   -3.00    6.10
   4   0   1   -2.80    3.20
   2   0   1    2.20    1.50
   0   0   1    0.40    1.10
   0   0   2 4222.80   22.80
   2   0   2 2622.30   28.60
   4   0   2 1345.90   23.30
   4   0   3    2.50    4.20
   2   0   3    1.30    2.90
   0   0   3    1.00    2.10
   0   0   4 1746.50   19.90
   2   0   4 1202.40   24.90
   4   0   4  667.80   19.50
   4   0   5    2.50    6.00
   2   0   5    1.40    5.60
   0   0   5   30.20    1.70
   0   0   6  507.60   14.70
   2   0   6  298.70   11.10
   1   1   6   78.80    3.10
   3   1   5  341.70   14.50
   5   1   4   86.10    4.00
   3   1   4  250.30    9.00
   1   1   4  376.60   14.00
   1   1   3 1250.20   22.80
   3   1   3  857.50   19.50
   5   1   3  373.40   15.40
   5   1   2  229.90   11.10
   3   1   2  539.50   12.90
   1   1   2  875.30   16.20
   1   1   1 2601.00   23.30
   3   1   1 1572.60   18.30
   5   1   1  610.20   15.50
   5   1   0  298.80   10.90
   3   1   0  823.80   11.40
   1   1   0 1978.70   11.40
   0   2   0  194.60    2.70
   2   2   0  185.70    4.50
   4   2   0   71.00    3.40
   6   2   0   23.20    2.00
   6   2   1  423.40   14.20
   4   2   1 1286.00   19.10
   2   2   1 2714.00   23.50
   0   2   1 2993.80   15.30
   0   2   2  141.20    3.80
   2   2   2   92.70    4.10
   4   2   2   47.80    2.20
   4   2   3  714.60   20.10
   2   2   3 1268.30   24.50
   0   2   3 1733.70   16.30
   0   2   4   67.90    3.20
   2   2   4   48.00    2.20
   4   2   4   27.00    2.00
   4   2   5  272.60   11.50
   2   2   5  595.70   18.00
   0   2   5  753.80   15.70
   0   2   6   19.30    2.00
   2   2   6   15.60    2.00
   1   3   6  332.80   14.20
   1   3   5  160.30    6.30
   3   3   5  119.90    6.00
   5   3   4  255.50   11.00
   3   3   4  730.70   19.70
   1   3   4 1102.50   20.80
   1   3   3  383.40   11.20
   3   3   3  248.90   11.60
   5   3   3  101.30    5.00
   5   3   2  602.00   19.80
   3   3   2 1506.80   22.90
   1   3   2 2145.40   25.70
   1   3   1  908.30   10.70
   3   3   1  473.00   10.10
   5   3   1  183.10    6.60
   5   3   0  846.20   17.70
   3   3   0 2154.20   19.90
   1   3   0 4192.20   21.10
   0   4   0 2418.10   14.80
   2   4   0 2541.60   18.80
   4   4   0 1139.40   17.60
   4   4   1  404.00   11.40
   2   4   1  910.00   12.40
   0   4   1 1008.70    9.50
   0   4   2 1861.20   15.10
   2   4   2 1471.00   21.40
   4   4   2  800.10   18.90
   4   4   3  253.90   11.60
   2   4   3  420.00   14.50
   0   4   3  514.40    9.10
   0   4   4  721.20   13.30
   2   4   4  763.70   19.60
   4   4   4  382.60   16.00
   4   4   5   90.40    3.50
   2   4   5  182.80    7.80
   0   4   5  150.20    5.90
   0   4   6  191.80    6.60
   2   4   6  250.60   11.40
   1   5   6    9.60    1.50
   1   5   5  490.50   14.60
   3   5   5  368.40   13.20
   5   5   4    6.80    5.40
   3   5   4   17.50    1.40
   1   5   4   21.10    1.50
   1   5   3 1339.00   20.00
   3   5   3  913.90   20.80
   5   5   3  396.30   16.70
   5   5   2    7.30    5.40
   3   5   2   24.10    1.50
   1   5   2   41.50    1.90
   1   5   1 2654.90   19.10
   3   5   1 1634.60   19.40
   5   5   1  669.20   17.10
   5   5   0   16.80    1.40
   3   5   0   37.80    1.50
   1   5   0   69.80    2.80
   0   6   0 1073.60   10.90
   2   6   0 1076.10   12.80
   4   6   0  520.60   12.90
   4   6   1  717.80   15.60
   2   6   1 1376.70   15.90
   0   6   1 1444.80   13.30
   0   6   2  880.70   11.30
   2   6   2  757.00   14.30
   4   6   2  397.80   13.40
   4   6   3  391.80   16.00
   2   6   3  741.00   18.00
   0   6   3  847.40   13.00
   0   6   4  355.60   10.20
   2   6   4  344.10   14.40
   4   6   4  197.60    8.10
   2   6   5  339.60   14.00
   0   6   5  266.10   10.90
   0   6   6  108.30    5.00
   1   7   6  262.60   12.70
   1   7   5    8.40    5.90
   3   7   5    7.10    6.00
   3   7   4  704.70   18.50
   1   7   4  908.60   18.90
   1   7   3   25.30    1.60
   3   7   3   21.40    1.70
   5   7   3   10.10    5.60
   5   7   2  570.30   17.60
   3   7   2 1262.30   23.00
   1   7   2 1922.30   20.40
   1   7   1   42.00    1.80
   3   7   1   44.80    1.90
   5   7   1   14.60    1.50
   5   7   0  774.70   18.30
   3   7   0 1805.70   21.10
   1   7   0 2531.30   20.10
   0   8   0  437.40    8.10
   2   8   0  409.30    9.20
   4   8   0  201.60    9.50
   4   8   1  666.30   16.20
   2   8   1 1219.40   16.70
   0   8   1 1343.90   14.70
   0   8   2  355.90    8.20
   2   8   2  291.30    9.70
   4   8   2  158.60    6.40
   4   8   3  377.10   16.80
   2   8   3  698.30   17.60
   0   8   3  840.00   14.20
   0   8   4  164.40    5.50
   2   8   4  142.20    6.50
   4   8   4   67.60    3.00
   2   8   5  262.90   11.70
   0   8   5  299.20   11.50
   3   9   4   35.80    2.50
   1   9   4   54.30    2.30
   1   9   3  804.90   16.80
   3   9   3  536.80   17.60
   3   9   2   78.00    3.30
   1   9   2  108.60    4.00
   1   9   1 1304.60   16.40
   3   9   1  960.20   17.40
   5   9   1  396.10   14.70
   5   9   0   48.20    2.50
   3   9   0  118.60    4.60
   1   9   0  147.40    5.60
   0  10   0 1513.10   17.70
   2  10   0 1272.90   18.80
   4  10   0  740.90   17.20
   4  10   1   74.30    3.30
   2  10   1  143.00    7.10
   0  10   1  167.30    6.50
   0  10   2 1234.70   17.60
   2  10   2 1016.10   18.60
   4  10   2  553.20   18.30
   4  10   3   42.70    2.50
   2  10   3   82.40    4.40
   0  10   3  117.00    4.30
   0  10   4  619.10   14.60
   2  10   4  453.10   17.40
   2  10   5   34.30    2.00
   0  10   5   43.20    2.50
   1  11   5   93.60    4.50
   1  11   4  283.10   12.40
   1  11   3  275.00   11.40
   3  11   3  189.80    8.00
   3  11   2  417.10   13.90
   1  11   2  609.10   13.90
   1  11   1  468.10   11.80
   3  11   1  320.90   11.30
   3  11   0  554.90   13.50
   1  11   0  730.10   13.80
   0  12   0    4.60    3.50
   2  12   0   -1.20    4.80
   4  12   0   -1.00    6.00
   4  12   1  424.80   14.60
   2  12   1  703.10   16.50
   0  12   1  946.90   16.70
   0  12   2    4.80    4.00
   2  12   2    3.10    4.90
   2  12   3  413.50   16.10
   0  12   3  576.60   15.10
   0  12   4    0.50    6.00
   2  12   4   -1.50    6.10
   1  13   3  258.80   11.30
   3  13   3  175.60    7.50
   3  13   2  250.10   12.60
   1  13   2  390.90   12.60
   1  13   1  438.00   12.50
   3  13   1  266.90   11.20
   3  13   0  334.70   12.10
   1  13   0  500.80   13.00
   0  14   0  851.50   17.40
   2  14   0  656.60   16.10
   2  14   1   34.10    2.40
   0  14   1   52.20    2.20
   0  14   2  630.80   17.10
   2  14   2  513.70   15.40
   2  14   3   24.30    2.00
   0  14   3   34.70    2.00
   1  15   3  254.00   11.60
   1  15   2   68.80    3.00
   1  15   1  399.20   14.10
   1  15   0   89.90    3.80
   0  16   0   78.80    4.00
   0  16   1  397.40   13.10
  -2   0   0 4584.60   24.60
  -4   0   0 1992.80   22.00
  -6   0   0  691.70   17.60
  -6   0   1    3.50    5.60
  -4   0   1   -1.60    3.20
  -2   0   1    2.00    1.50
   0   0   1    0.50    1.10
   0   0   2 4281.60   23.00
  -2   0   2 3180.90   22.30
  -4   0   2 1528.10   20.70
  -4   0   3    8.00    4.20
  -2   0   3    4.50    0.80
   0   0   3    2.10    2.10
   0   0   4 1738.10   19.90
  -2   0   4 1401.80   19.30
  -4   0   4  699.00   17.00
  -4   0   5   -2.50    6.00
  -2   0   5    5.60    4.70
   0   0   5   30.50    1.70
   0   0   6  511.60   15.20
  -1  -1   6  119.90    5.60
  -1  -1   5  543.60   14.10
  -3  -1   5  324.20   12.00
  -3  -1   4  267.10   10.20
  -1  -1   4  415.00   10.40
  -1  -1   3 1518.90   15.80
  -3  -1   3  988.30   16.10
  -5  -1   3  361.00   12.90
  -5  -1   2  251.40   10.10
  -3  -1   2  636.80   11.30
  -1  -1   2 1118.40   10.90
  -1  -1   1 3695.50   18.40
  -3  -1   1 1677.10   16.80
  -5  -1   1  616.20   15.50
  -5  -1   0  305.00   11.30
  -3  -1   0  887.00   11.50
  -1  -1   0 2116.90   11.80
   0  -2   0  207.70    2.60
  -2  -2   0  195.50    4.50
  -4  -2   0   83.70    3.40
  -6  -2   0   24.60    2.00
  -6  -2   1  442.40   14.10
  -4  -2   1 1306.90   18.40
  -2  -2   1 3163.70   20.20
   0  -2   1 3244.00   16.00
   0  -2   2  150.30    4.00
  -2  -2   2  115.50    4.50
  -4  -2   2   57.90    2.90
  -4  -2   3  782.30   16.70
  -2  -2   3 1532.80   17.90
   0  -2   3 1737.70   16.50
   0  -2   4   55.60    2.20
  -2  -2   4   49.30    2.20
  -4  -2   4   29.40    2.00
  -4  -2   5  206.30    9.00
  -2  -2   5  571.80   15.10
   0  -2   5  596.80   13.90
   0  -2   6   13.70    2.00
  -2  -2   6   11.00    6.50
  -1  -3   6  256.40   10.10
  -1  -3   5  150.40    5.90
  -3  -3   5  100.50    4.00
  -3  -3   4  721.40   16.60
  -1  -3   4 1133.60   17.70
  -1  -3   3  429.10    8.60
  -3  -3   3  273.50    8.70
  -5  -3   3  101.00    4.50
  -5  -3   2  664.20   16.00
  -3  -3   2 1647.20   19.20
  -1  -3   2 2663.90   18.70
  -1  -3   1 1012.40    9.00
  -3  -3   1  471.30    9.30
  -5  -3   1  189.20    8.80
  -5  -3   0  907.30   17.60
  -3  -3   0 2299.30   20.50
  -1  -3   0 4464.60   22.00
   0  -4   0 2567.80   14.50
  -2  -4   0 2640.10   19.10
  -4  -4   0 1153.20   17.80
  -4  -4   1  460.40   11.40
  -2  -4   1  961.30   11.10
   0  -4   1 1087.80    9.30
   0  -4   2 1913.60   15.30
  -2  -4   2 1742.50   17.40
  -4  -4   2  873.40   16.20
  -4  -4   3  267.50   10.70
  -2  -4   3  510.00   10.90
   0  -4   3  543.10    9.30
   0  -4   4  789.90   13.90
  -2  -4   4  782.80   15.70
  -4  -4   4  397.00   13.90
  -2  -4   5  179.90    6.80
   0  -4   5  215.70    9.50
   0  -4   6  232.20   11.10
  -1  -5   6    5.00    6.50
  -1  -5   5  485.40   14.10
  -3  -5   4   10.60    5.50
  -1  -5   4   23.30    1.50
  -1  -5   3 1394.30   16.80
  -3  -5   3  941.60   17.10
  -5  -5   3  408.90   13.70
  -5  -5   2   10.70    5.80
  -3  -5   2   29.10    1.20
  -1  -5   2   50.70    2.10
  -1  -5   1 2557.60   17.90
  -3  -5   1 1612.50   18.80
  -5  -5   1  688.90   16.70
  -5  -5   0   13.10    1.80
  -3  -5   0   36.30    1.50
  -1  -5   0   73.40    3.00
   0  -6   0 1133.60   10.70
  -2  -6   0 1125.40   13.40
  -4  -6   0  540.20   13.20
  -4  -6   1  702.00   14.90
  -2  -6   1 1400.60   15.10
   0  -6   1 1514.20   13.10
   0  -6   2  842.70   11.10
  -2  -6   2  759.30   12.50
  -4  -6   2  408.20   12.10
  -4  -6   3  410.60   13.60
  -2  -6   3  760.60   14.30
   0  -6   3  792.20   12.80
   0  -6   4  354.00   10.50
  -2  -6   4  339.40   11.50
  -4  -6   4  201.00    7.10
  -2  -6   5  275.60   11.50
   0  -6   5  276.90   10.90
   0  -6   6   94.20    3.50
  -1  -7   5    9.40    1.50
  -3  -7   5    4.50    6.00
  -3  -7   4  673.50   16.00
  -1  -7   4  832.10   16.40
  -1  -7   3   22.10    1.30
  -3  -7   3   15.10    1.70
  -5  -7   2  567.60   15.60
  -3  -7   2 1317.00   19.50
  -1  -7   2 1865.00   18.70
  -1  -7   1   41.00    2.00
  -3  -7   1   36.70    1.60
  -5  -7   1   10.70    5.40
  -5  -7   0  786.40   18.30
  -3  -7   0 1894.00   21.70
  -1  -7   0 2689.10   20.30
   0  -8   0  477.40    8.10
  -2  -8   0  418.00    9.20
  -4  -8   0  208.60   10.00
  -4  -8   1  643.10   15.40
  -2  -8   1 1150.80   15.90
   0  -8   1 1282.70   14.20
   0  -8   2  314.60    7.70
  -2  -8   2  308.30    8.80
  -4  -8   2  144.40    6.40
  -4  -8   3  387.90   13.40
  -2  -8   3  669.90   14.60
   0  -8   3  706.30   13.60
   0  -8   4  150.00    5.50
  -2  -8   4  132.40    5.60
   0  -8   5  260.80   12.00
  -3  -9   4   34.90    2.00
  -1  -9   4   45.80    2.30
  -1  -9   3  690.20   14.60
  -3  -9   3  564.20   15.30
  -3  -9   2   73.00    3.30
  -1  -9   2  116.60    4.00
  -1  -9   1 1298.40   16.40
  -3  -9   1  932.30   16.70
  -5  -9   1  394.80   14.20
  -5  -9   0   45.90    2.50
  -3  -9   0  140.80    6.80
  -1  -9   0  151.10    5.70
   0 -10   0 1538.50   17.70
  -2 -10   0 1311.80   18.80
  -4 -10   0  789.00   18.20
  -4 -10   1   79.70    3.30
  -2 -10   1  139.00    6.80
   0 -10   1  161.60    6.20
   0 -10   2 1063.60   16.40
  -2 -10   2  930.70   17.50
  -4 -10   2  539.20   15.80
   2   0   0 4517.30   24.70
   4   0   0 1895.30   22.00
   6   0   0  616.00   17.60
   6   0   1    1.00    5.60
   4   0   1    2.80    2.80
   2   0   1    1.70    1.40
   0   0   1    1.80    1.10
   0   0   2 4282.20   23.00
   2   0   2 2647.40   28.30
   4   0   2 1366.30   23.20
   4   0   3   -2.50    4.60
   2   0   3    3.40    2.90
   0   0   3    1.40    2.30
   0   0   4 1684.60   19.60
   2   0   4 1219.30   25.50
   4   0   4  661.00   19.00
   4   0   5    9.50    5.50
   2   0   5    5.20    5.20
   0   0   5   30.90    1.70
   0   0   6  497.00   15.20
   2   0   6  278.20   11.60
   1   1   6   83.70    3.60
   3   1   5  341.10   14.50
   5   1   4   93.30    3.50
   3   1   4  269.40   12.40
   1   1   4  419.20   13.40
   1   1   3 1290.80   22.20
   3   1   3  842.00   19.50
   5   1   3  376.30   14.90
   5   1   2  216.80    8.30
   3   1   2  534.30   13.40
   1   1   2  862.00   15.90
   1   1   1 2643.70   23.50
   3   1   1 1597.10   17.90
   5   1   1  622.10   15.50
   5   1   0  309.20   10.90
   3   1   0  818.30   11.60
   1   1   0 2014.90   11.50
   0   2   0  188.80    2.70
   2   2   0  178.80    4.30
   4   2   0   74.50    3.40
   6   2   0   25.20    2.00
   6   2   1  395.00   14.70
   4   2   1 1250.20   18.80
   2   2   1 2704.20   23.50
   0   2   1 2996.00   15.20
   0   2   2  141.00    3.80
   2   2   2   94.40    3.90
   4   2   2   51.50    2.20
   4   2   3  746.70   19.70
   2   2   3 1255.30   24.50
   0   2   3 1762.80   16.60
   0   2   4   63.80    3.20
   2   2   4   48.80    2.20
   4   2   4   25.50    2.00
   4   2   5  258.30   11.00
   2   2   5  598.20   18.90
   0   2   5  720.60   16.10
   0   2   6   19.80    2.00
   2   2   6   15.60    1.50
   1   3   6  353.00   13.70
   0   0   0    0.00    0.00
;
_shelx_hkl_checksum              29203
loop_
_space_group_symop_operation_xyz
'x, y, z'
'-x, -y, z+1/2'
'-x, y, -z+1/2'
'x, -y, -z'
'x+1/2, y+1/2, z'
'-x+1/2, -y+1/2, z+1/2'
'-x+1/2, y+1/2, -z+1/2'
'x+1/2, -y+1/2, -z'
'-x, -y, -z'
'x, y, -z-1/2'
'x, -y, z-1/2'
'-x, y, z'
'-x+1/2, -y+1/2, -z'
'x+1/2, y+1/2, -z-1/2'
'x+1/2, -y+1/2, z-1/2'
'-x+1/2, y+1/2, z'
loop_
_atom_site_label
_atom_site_type_symbol
_atom_site_fract_x
_atom_site_fract_y
_atom_site_fract_z
_atom_site_U_iso_or_equiv
_atom_site_adp_type
_atom_site_occupancy
_atom_site_site_symmetry_order
_atom_site_calc_flag
_atom_site_refinement_flags_posn
_atom_site_refinement_flags_adp
_atom_site_refinement_flags_occupancy
Mo Mo 0.5000 0.35483(5) 0.2500 0.0046(3) Uani 1 4 d S T P
B B 0.0000 0.4400(9) -0.2500 0.005(3) Uani 0.85(8) 4 d S T .
loop_
_atom_site_aniso_label
_atom_site_aniso_U_11
_atom_site_aniso_U_22
_atom_site_aniso_U_33
_atom_site_aniso_U_23
_atom_site_aniso_U_13
_atom_site_aniso_U_12
Mo 0.0024(3) 0.0058(4) 0.0058(4) 0.000 0.000 0.000
B 0.003(4) 0.004(4) 0.008(4) 0.000 0.000 0.000
loop_
_atom_type_symbol
_atom_type_description
_atom_type_scat_dispersion_real
_atom_type_scat_dispersion_imag
_atom_type_scat_source
B B 0.0013 0.0007 'International Tables Vol C Tables 4.2.6.8 and 6.1.1.4'
Mo Mo -1.6832 0.6857 'International Tables Vol C Tables 4.2.6.8 and 6.1.1.4'
loop_
_geom_angle_atom_site_label_1
_geom_angle_atom_site_label_2
_geom_angle_atom_site_label_3
_geom_angle
_geom_angle_site_symmetry_1
_geom_angle_site_symmetry_3
B Mo B 85.55(12) 1_656 1_556
B Mo B 83.22(11) 1_656 1_655
B Mo B 143.5(4) 1_556 1_655
B Mo B 143.5(4) 1_656 .
B Mo B 83.22(11) 1_556 .
B Mo B 85.55(12) 1_655 .
B Mo B 46.6(2) 1_656 9_665
B Mo B 102.84(7) 1_556 9_665
B Mo B 46.6(2) 1_655 9_665
B Mo B 102.84(7) . 9_665
B Mo B 102.84(7) 1_656 9_565
B Mo B 46.6(2) 1_556 9_565
B Mo B 102.84(7) 1_655 9_565
B Mo B 46.6(2) . 9_565
B Mo B 84.0(3) 9_665 9_565
B Mo B 108.23(19) 1_656 13
B Mo B 108.23(19) 1_556 13
B Mo B 108.23(19) 1_655 13
B Mo B 108.23(19) . 13
B Mo B 137.98(13) 9_665 13
B Mo B 137.98(13) 9_565 13
B Mo Mo 159.19(19) 1_656 13
B Mo Mo 100.40(12) 1_556 13
B Mo Mo 102.33(11) 1_655 13
B Mo Mo 57.26(19) . 13
B Mo Mo 147.103(8) 9_665 13
B Mo Mo 95.51(11) 9_565 13
B Mo Mo 50.965(15) 13 13
B Mo Mo 102.33(11) 1_656 13_556
B Mo Mo 57.26(19) 1_556 13_556
B Mo Mo 159.19(19) 1_655 13_556
B Mo Mo 100.40(12) . 13_556
B Mo Mo 147.103(8) 9_665 13_556
B Mo Mo 95.51(11) 9_565 13_556
B Mo Mo 50.965(15) 13 13_556
Mo Mo Mo 65.785(16) 13 13_556
B Mo Mo 100.40(12) 1_656 13_655
B Mo Mo 159.19(19) 1_556 13_655
B Mo Mo 57.26(19) 1_655 13_655
B Mo Mo 102.33(11) . 13_655
B Mo Mo 95.51(11) 9_665 13_655
B Mo Mo 147.103(8) 9_565 13_655
B Mo Mo 50.965(15) 13 13_655
Mo Mo Mo 67.474(16) 13 13_655
Mo Mo Mo 101.93(3) 13_556 13_655
B Mo Mo 57.26(19) 1_656 13_656
B Mo Mo 102.33(11) 1_556 13_656
B Mo Mo 100.40(12) 1_655 13_656
B Mo Mo 159.19(19) . 13_656
B Mo Mo 95.51(11) 9_665 13_656
B Mo Mo 147.103(8) 9_565 13_656
B Mo Mo 50.965(15) 13 13_656
Mo Mo Mo 101.93(3) 13 13_656
Mo Mo Mo 67.474(16) 13_556 13_656
Mo Mo Mo 65.785(16) 13_655 13_656
B Mo Mo 51.94(17) 1_656 9_666
B Mo Mo 51.94(17) 1_556 9_666
B Mo Mo 94.90(17) 1_655 9_666
B Mo Mo 94.90(17) . 9_666
B Mo Mo 50.91(10) 9_665 9_666
B Mo Mo 50.91(10) 9_565 9_666
B Mo Mo 148.089(10) 13 9_666
Mo Mo Mo 145.253(13) 13 9_666
Mo Mo Mo 104.332(7) 13_556 9_666
Mo Mo Mo 145.253(13) 13_655 9_666
Mo Mo Mo 104.332(7) 13_656 9_666
B B B 112.8(8) 9_565 9_564
B B Mo 67.65(14) 9_565 .
B B Mo 136.57(16) 9_564 .
B B Mo 136.57(16) 9_565 1_454
B B Mo 67.65(14) 9_564 1_454
Mo B Mo 143.5(4) . 1_454
B B Mo 136.57(16) 9_565 1_554
B B Mo 67.65(14) 9_564 1_554
Mo B Mo 83.22(11) . 1_554
Mo B Mo 85.55(12) 1_454 1_554
B B Mo 67.65(14) 9_565 1_455
B B Mo 136.57(16) 9_564 1_455
Mo B Mo 85.55(12) . 1_455
Mo B Mo 83.22(11) 1_454 1_455
Mo B Mo 143.5(4) 1_554 1_455
B B Mo 65.7(3) 9_565 9_665
B B Mo 65.7(3) 9_564 9_665
Mo B Mo 77.16(7) . 9_665
Mo B Mo 133.4(2) 1_454 9_665
Mo B Mo 77.16(7) 1_554 9_665
Mo B Mo 133.4(2) 1_455 9_665
B B Mo 65.7(3) 9_565 9_565
B B Mo 65.7(3) 9_564 9_565
Mo B Mo 133.4(2) . 9_565
Mo B Mo 77.16(7) 1_454 9_565
Mo B Mo 133.4(2) 1_554 9_565
Mo B Mo 77.16(7) 1_455 9_565
Mo B Mo 84.1(3) 9_665 9_565
B B Mo 123.6(4) 9_565 13
B B Mo 123.6(4) 9_564 13
Mo B Mo 71.77(19) . 13
Mo B Mo 71.77(19) 1_454 13
Mo B Mo 71.77(19) 1_554 13
Mo B Mo 71.77(19) 1_455 13
Mo B Mo 137.97(13) 9_665 13
Mo B Mo 137.97(13) 9_565 13
loop_
_geom_bond_atom_site_label_1
_geom_bond_atom_site_label_2
_geom_bond_distance
_geom_bond_site_symmetry_2
Mo B 2.313(3) 1_656
Mo B 2.313(3) 1_556
Mo B 2.313(3) 1_655
Mo B 2.313(3) .
Mo B 2.347(6) 9_665
Mo B 2.347(6) 9_565
Mo B 2.505(8) 13
Mo Mo 2.8285(6) 13
Mo Mo 2.8285(6) 13_556
Mo Mo 2.8285(6) 13_655
Mo Mo 2.8285(6) 13_656
Mo Mo 2.9059(8) 9_666
B B 1.844(9) 9_565
B B 1.844(9) 9_564
B Mo 2.313(3) 1_454
B Mo 2.313(3) 1_554
B Mo 2.313(3) 1_455
B Mo 2.347(6) 9_665
B Mo 2.347(6) 9_565
B Mo 2.505(8) 13
