#------------------------------------------------------------------------------
#$Date: 2015-09-04 08:12:49 +0300 (Fri, 04 Sep 2015) $
#$Revision: 153928 $
#$URL: svn://www.crystallography.net/cod/cif/4/51/35/4513584.cif $
#------------------------------------------------------------------------------
#
# This file is available in the Crystallography Open Database (COD),
# http://www.crystallography.net/
#
# All data on this site have been placed in the public domain by the
# contributors.
#
data_4513584
loop_
_publ_author_name
'Gu\'nka, Piotr A.'
'Dziubek, Kamil F.'
'G\/ladysiak, Andrzej'
'Dranka, Maciej'
'Piechota, Jacek'
'Hanfland, Michael'
'Katrusiak, Andrzej'
'Zachara, Janusz'
_publ_section_title
;
 Compressed Arsenolite As4O6and Its Helium Clathrate As4O6&#x00B7;2He
;
_journal_issue                   8
_journal_name_full               'Crystal Growth &amp; Design'
_journal_page_first              3740
_journal_paper_doi               10.1021/acs.cgd.5b00390
_journal_volume                  15
_journal_year                    2015
_chemical_formula_moiety         'As4 O6'
_chemical_formula_sum            'As4 O6'
_chemical_formula_weight         395.69
_chemical_name_common            arsenolite
_space_group_crystal_system      cubic
_space_group_IT_number           227
_space_group_name_Hall           '-F 4vw 2vw 3'
_space_group_name_H-M_alt        'F d -3 m'
_symmetry_space_group_name_Hall  '-F 4vw 2vw 3'
_symmetry_space_group_name_H-M   'F d -3 m :2'
_atom_sites_solution_primary     direct
_audit_creation_date             2014-10-15
_audit_creation_method
;
Olex2 1.2-beta
(compiled 2014.09.19 svn.r3010 for OlexSys, GUI svn.r4874)
;
_cell_angle_alpha                90
_cell_angle_beta                 90
_cell_angle_gamma                90
_cell_formula_units_Z            8
_cell_length_a                   9.4913(5)
_cell_length_b                   9.4913(5)
_cell_length_c                   9.4913(5)
_cell_measurement_pressure       2.983e7(5)
_cell_measurement_reflns_used    180
_cell_measurement_temperature    293(2)
_cell_measurement_theta_max      18.3380
_cell_measurement_theta_min      2.1510
_cell_volume                     855.02(8)
_computing_cell_refinement
;
CrysAlisPro, Agilent Technologies,
Version 1.171.37.34 (release 22-05-2014 CrysAlis171 .NET)
(compiled May 22 2014,16:03:01)
;
_computing_data_collection
;
CrysAlisPro, Agilent Technologies,
Version 1.171.37.34 (release 22-05-2014 CrysAlis171 .NET)
(compiled May 22 2014,16:03:01)
;
_computing_data_reduction
;
CrysAlisPro, Agilent Technologies,
Version 1.171.37.34 (release 22-05-2014 CrysAlis171 .NET)
(compiled May 22 2014,16:03:01)
;
_computing_molecular_graphics    'Olex2 (Dolomanov et al., 2009)'
_computing_publication_material  'Olex2 (Dolomanov et al., 2009)'
_computing_structure_refinement  'ShelXL (Sheldrick, 2008)'
_computing_structure_solution    'ShelXS (Sheldrick, 2008)'
_diffrn_ambient_environment      He
_diffrn_ambient_pressure         2.983e7(5)
_diffrn_ambient_temperature      293(2)
_diffrn_detector                 'CCD plate'
_diffrn_measured_fraction_theta_full 0.765
_diffrn_measured_fraction_theta_max 0.589
_diffrn_measurement_details
;
  1 phi    148.00  212.00   0.5000    1.0000
omega____ theta____ kappa____ phi______ frames
   0.0000    0.0000    0.0000     -     128
;
_diffrn_measurement_device       'abstract diffractometer'
_diffrn_measurement_device_type
'MAR-CrysAlisPro-abstract goniometer: imported MAR images'
_diffrn_measurement_method       '\p scans'
_diffrn_orient_matrix_UB_11      0.0008636000
_diffrn_orient_matrix_UB_12      0.0353422000
_diffrn_orient_matrix_UB_13      -0.0256350000
_diffrn_orient_matrix_UB_21      0.0307853000
_diffrn_orient_matrix_UB_22      0.0175799000
_diffrn_orient_matrix_UB_23      0.0254329000
_diffrn_orient_matrix_UB_31      0.0309511000
_diffrn_orient_matrix_UB_32      -0.0185030000
_diffrn_orient_matrix_UB_33      -0.0245838000
_diffrn_radiation_monochromator  synchrotron
_diffrn_radiation_probe          x-ray
_diffrn_radiation_wavelength     0.41427
_diffrn_reflns_av_R_equivalents  0.0325
_diffrn_reflns_av_unetI/netI     0.0268
_diffrn_reflns_laue_measured_fraction_full 0.765
_diffrn_reflns_laue_measured_fraction_max 0.589
_diffrn_reflns_limit_h_max       16
_diffrn_reflns_limit_h_min       -14
_diffrn_reflns_limit_k_max       9
_diffrn_reflns_limit_k_min       -11
_diffrn_reflns_limit_l_max       13
_diffrn_reflns_limit_l_min       -12
_diffrn_reflns_number            356
_diffrn_reflns_point_group_measured_fraction_full 0.765
_diffrn_reflns_point_group_measured_fraction_max 0.589
_diffrn_reflns_theta_full        14.392
_diffrn_reflns_theta_max         20.228
_diffrn_reflns_theta_min         2.166
_diffrn_source                   synchrotron
_exptl_absorpt_coefficient_mu    7.103
_exptl_absorpt_correction_T_max  1.00000
_exptl_absorpt_correction_T_min  0.18006
_exptl_absorpt_correction_type   multi-scan
_exptl_absorpt_process_details
;
CrysAlisPro, Agilent Technologies,
Version 1.171.37.34 (release 22-05-2014 CrysAlis171 .NET)
(compiled May 22 2014,16:03:01)
Empirical absorption correction using spherical harmonics,
 implemented in SCALE3 ABSPACK scaling algorithm.
;
_exptl_crystal_density_diffrn    6.148
_exptl_crystal_description       block
_exptl_crystal_F_000             1440
_exptl_crystal_size_max          0.065
_exptl_crystal_size_mid          0.04
_exptl_crystal_size_min          0.02
_refine_diff_density_max         0.568
_refine_diff_density_min         -0.545
_refine_diff_density_rms         0.155
_refine_ls_extinction_method     none
_refine_ls_goodness_of_fit_ref   1.206
_refine_ls_hydrogen_treatment    undef
_refine_ls_matrix_type           full
_refine_ls_number_parameters     8
_refine_ls_number_reflns         76
_refine_ls_number_restraints     0
_refine_ls_restrained_S_all      1.206
_refine_ls_R_factor_all          0.0726
_refine_ls_R_factor_gt           0.0584
_refine_ls_shift/su_max          0.000
_refine_ls_shift/su_mean         0.000
_refine_ls_structure_factor_coef Fsqd
_refine_ls_weighting_details
'w=1/[\s^2^(Fo^2^)+(0.0720P)^2^+18.1070P] where P=(Fo^2^+2Fc^2^)/3'
_refine_ls_weighting_scheme      calc
_refine_ls_wR_factor_gt          0.1403
_refine_ls_wR_factor_ref         0.1676
_reflns_Friedel_coverage         0.000
_reflns_number_gt                61
_reflns_number_total             76
_reflns_threshold_expression     'I > 2\s(I)'
_cod_data_source_file            cg5b00390_si_002.cif
_cod_data_source_block           marseno_024
_cod_original_cell_volume        855.02(15)
_cod_database_code               4513584
_shelx_space_group_comment
;
The symmetry employed for this shelxl refinement is uniquely defined
by the following loop, which should always be used as a source of
symmetry information in preference to the above space-group names.
They are only intended as comments.
;
_olex2_refinement_description
;
;
_shelx_res_file
;
    marseno_024.res created by SHELXL-2014/7

TITL marseno_024 in Fd-3m #227
CELL 0.41427 9.491303 9.491303 9.491303 90 90 90
ZERR 8 0.000537 0.000537 0.000537 0 0 0
LATT 4
SYMM -Y,0.25+X,0.25+Z
SYMM 0.25-X,0.25-Y,+Z
SYMM 0.25+Y,-X,0.25+Z
SYMM 0.25+X,-Z,0.25+Y
SYMM +X,0.25-Y,0.25-Z
SYMM 0.25+X,0.25+Z,-Y
SYMM 0.25+Z,0.25+Y,-X
SYMM 0.25-X,+Y,0.25-Z
SYMM -Z,0.25+Y,0.25+X
SYMM +Z,+X,+Y
SYMM +Y,+Z,+X
SYMM 0.25-Y,0.25-Z,+X
SYMM +Z,0.25-X,0.25-Y
SYMM 0.25-Y,+Z,0.25-X
SYMM 0.25-Z,0.25-X,+Y
SYMM 0.25-Z,+X,0.25-Y
SYMM +Y,0.25-Z,0.25-X
SYMM 0.25+Y,0.25+X,-Z
SYMM -Y,-X,-Z
SYMM -X,0.25+Z,0.25+Y
SYMM -X,-Z,-Y
SYMM 0.25+Z,-Y,0.25+X
SYMM -Z,-Y,-X

SFAC As O
DISP As 0.311 0.799 1882.762
DISP O 0.002 0.002 10.067
UNIT 32.00064 48

L.S. 10 0 0
PLAN  20
REM reset to Fd-3m #227
BOND
fmap 2 53
ACTA
OMIT 0 0 16
REM <HKL>E:/X-Ray_Data_Backup/ESRF_id09_2014_10/data/arsenolite/arseno_024/str
REM uct/olex2_marseno_024/marseno_024.hkl</HKL>

WGHT    0.072000   18.107000
FVAR       1.83717
O1    2    0.375000    0.375000    0.179179    10.25000    0.01449    0.01449 =
         0.01490    0.00000    0.00000   -0.00239
AS1   1    0.252654    0.252654    0.252654    10.16667    0.01171    0.01171 =
         0.01171   -0.00009   -0.00009   -0.00009
HKLF 4

REM  marseno_024 in Fd-3m #227
REM R1 =  0.0584 for      61 Fo > 4sig(Fo)  and  0.0726 for all      76 data
REM      8 parameters refined using      0 restraints

END

WGHT      0.0724     18.0078

REM Highest difference peak  0.568,  deepest hole -0.545,  1-sigma level  0.155
Q1    1   0.2640  0.3784  0.1953  11.00000  0.05    0.57
Q2    1   0.3750  0.3750  0.2550  10.25000  0.05    0.53
Q3    1   0.4948  0.4859  0.0189  10.20000  0.05    0.53
Q4    1   0.2056  0.2722  0.2056  10.50000  0.05    0.53
Q5    1   0.3782  0.4710  0.2259  11.00000  0.05    0.50
Q6    1   0.0864  0.2388  0.2104  11.00000  0.05    0.48
Q7    1   0.3805  0.3337  0.1374  11.00000  0.05    0.46
Q8    1   0.4204  0.3897  0.1190  11.00000  0.05    0.43
Q9    1   0.2546  0.2106  0.2965  11.00000  0.05    0.42
Q10   1   0.2267  0.2267  0.2934  10.50000  0.05    0.40
Q11   1   0.3750  0.3750  0.0093  10.25000  0.05    0.40
Q12   1   0.3735  0.5050  0.1532  11.00000  0.05    0.38
Q13   1   0.4620  0.2880  0.2466  10.50000  0.05    0.37
Q14   1   0.3429  0.4071  0.3429  10.16667  0.05    0.37
Q15   1   0.1966  0.1561  0.1561  10.50000  0.05    0.33
Q16   1   0.3987  0.2859  0.2046  11.00000  0.05    0.33
Q17   1   0.1502  0.2335  0.1502  10.50000  0.05    0.32
Q18   1   0.1642  0.1642  0.1642  10.16667  0.05    0.30
Q19   1   0.2092  0.2557  0.1081  11.00000  0.05    0.28
Q20   1   0.5024  0.2965  0.2476  10.50000  0.05    0.28
;
_shelx_res_checksum              62365
_shelx_hkl_file
;
  -1  -1  -1 43350.9 928.378   1
   1  -1  -1 43913.2 453.854   1
   1   1   1 44733.1 910.212   1
  -2   0  -2 10237.4 603.026   1
   2   0   2 10708.1 590.290   1
   0  -2  -2 9849.43 484.680   1
   0   2   2 10516.2 473.920   1
   3   1   1 95.6899 47.4659   1
  -1   1   3 112.656 46.0586   1
  -1  -1  -3 180.598 57.8970   1
   1   1   3 179.556 68.6007   1
   3  -1  -1 111.960 40.2607   1
  -3  -1  -1 180.598 70.1858   1
  -3   1   1 119.923 40.7120   1
   1  -3  -3 41670.5 1101.35   1
  -1  -3  -3 41039.6 1329.28   1
   1   3   3 39382.3 1259.93   1
   3   1   3 41171.1 1474.39   1
   3   3   1 40642.4 1443.68   1
  -3  -1  -3 39380.8 1421.12   1
  -1   3   3 40696.8 1032.13   1
  -3  -3  -1 41001.9 1389.69   1
   3   3   3 14464.9 858.306   1
   3  -3  -3 14172.4 390.773   1
  -3  -3  -3 14613.7 915.717   1
  -4   0   2 18.2231 18.7082   1
   4   0   2 9.87612 21.9998   1
   4   2   0 24.7749 39.7671   1
   4   2   2 30071.6 1219.64   1
  -2   2   4 30125.3 780.699   1
   2   2   4 30530.0 1236.44   1
   4  -2  -2 29793.1 554.634   1
  -4  -2  -2 30093.2 1279.46   1
  -2  -2  -4 31319.7 1260.82   1
  -2  -4  -4 59.3510 38.0310   1
   2  -4  -4 21.4302 6.75108   1
   4   2   4 12.3766 37.2768   1
  -4   2   4 11.2790 6.85225   1
   5  -1  -1 4962.66 392.448   1
  -5  -1   1 4503.97 425.244   1
  -5   1   1 5127.86 375.003   1
  -5   1  -1 5288.79 465.531   1
   5  -1   1 5144.67 473.415   1
   5   1   1 4731.81 484.752   1
  -5  -1  -1 4489.07 459.027   1
  -5  -3  -1 3425.34 482.784   1
  -5   1   3 3520.98 242.855   1
  -3  -1  -5 4349.41 550.972   1
   3   1   5 4610.49 618.925   1
   1  -3  -5 3564.03 346.879   1
   5   1   3 4520.18 542.300   1
  -1  -3  -5 3964.84 459.012   1
  -5  -1  -3 4487.55 545.334   1
   1   3   5 3410.59 416.414   1
  -1   3   5 3412.79 345.853   1
   5   3   1 3438.55 478.098   1
  -3   3   5 1089.39 140.425   1
   3   3   5 951.851 257.707   1
   5   3   3 901.746 245.584   1
  -3  -5  -3 1597.00 380.986   1
  -3  -3  -5 700.320 222.807   1
  -5  -3  -3 709.064 238.298   1
   3   5   3 1578.40 379.197   1
  -1  -5  -5 52444.5 1829.54   1
  -5  -1  -5 52534.4 2069.56   1
   1  -5  -5 53173.8 1648.88   1
  -1   5   5 52504.7 1618.22   1
   5   1   5 51372.8 2150.60   1
   1   5   5 53677.1 1785.53   1
   3   5   5 54.4291 88.1783   1
  -5  -5  -3 2.64796 39.5685   1
   3  -5  -5 17.7146 49.3686   1
   5   5   3 126.583 120.500   1
  -5  -5  -5 9.69883 16.2037   1
   6   0   0 14.6209 48.1258   1
  -6   0  -2 3651.73 465.989   1
   0   2   6 3749.93 464.273   1
   6   0   2 3267.03 443.209   1
   6   2   0 3655.93 466.997   1
   6  -2   0 3309.32 386.323   1
  -6   0   2 3661.33 376.551   1
  -6  -2   0 3832.98 502.066   1
  -6   0  -4 73.6553 74.0059   1
   0  -4  -6 8.32886 32.1350   1
   0  -6  -4 11.2284 37.5183   1
   4   2   6 71.5873 33.4810   1
  -2  -4  -6 126.090 77.5268   1
  -6  -2  -4 46.7215 83.6826   1
   6   4   2 49.7222 80.8279   1
  -6   2   4 1.43915 4.00728   1
  -2   4   6 18.1375 39.5696   1
   2  -4  -6 29.6137 13.4654   1
   6   2   4 93.5413 120.018   1
   2   4   6 3.34229 44.6713   1
  -4  -4  -6 55.0264 90.4425   1
   4   6   4 147.334 128.714   1
   4   4   6 29.9710 28.6126   1
  -6  -4  -4 2.32166 101.739   1
   0   6   6 15833.0 1057.38   1
   0  -6  -6 15178.6 1026.04   1
   6   6   4 2209.40 511.360   1
   4   6   6 2593.00 492.864   1
  -6  -6  -4 3556.51 732.017   1
   4  -6  -6 2773.20 316.718   1
  -4  -6  -6 2676.81 525.636   1
  -6  -4  -6 3157.29 649.316   1
   6   4   6 2566.25 552.053   1
  -7   1  -1 1931.31 325.014   1
  -7   1   1 1837.61 280.187   1
   7   1   1 1835.50 357.517   1
  -7  -1  -1 1736.18 345.458   1
   7   1  -1 1401.40 270.213   1
   7  -1   1 1640.39 317.243   1
   7  -1  -1 1814.38 301.463   1
  -7  -1   1 1593.85 326.224   1
   7  -3  -1 158.518 88.4814   1
  -7  -3  -1 158.339 92.1539   1
  -1  -3  -7 175.296 123.483   1
   7  -1   3 225.107 160.625   1
   7   3   1 251.677 161.672   1
  -7   1   3 140.804 72.3835   1
   7   1   3 192.182 119.792   1
  -1   3   7 76.8130 82.1870   1
   1   3   7 406.488 182.972   1
  -3  -3  -7 44700.0 1952.55   1
  -3   3   7 44487.6 1310.51   1
   3   3   7 43744.7 2015.13   1
  -7  -3  -3 46411.9 2134.98   1
   7   3   3 44475.3 1980.09   1
   1  -7  -5 2038.23 517.222   1
  -1   5   7 761.045 203.420   1
   1   5   7 1224.35 286.600   1
  -7  -1  -5 844.730 258.693   1
  -7   1   5 1300.42 203.975   1
  -1  -5  -7 682.925 245.487   1
   1  -5  -7 948.574 247.842   1
  -1  -7  -5 2259.24 566.383   1
   7   1   5 355.146 146.503   1
  -3   5   7 3345.83 369.615   1
   5   3   7 3761.62 653.720   1
  -7  -5  -3 2763.35 601.972   1
   7   3   5 4204.33 714.345   1
   3  -5  -7 2875.76 320.700   1
  -5  -3  -7 3676.39 640.863   1
   7  -5  -3 2037.72 219.096   1
  -3  -5  -7 3393.21 613.746   1
  -7  -3  -5 3725.02 695.419   1
   3   5   7 2915.33 515.171   1
   7   5   3 2590.04 550.163   1
  -5   3   7 2893.08 236.448   1
   5   5   7 3538.59 643.775   1
   5   7   5 3204.92 648.964   1
  -5  -5  -7 5010.02 830.289   1
  -7  -5  -5 4470.42 778.114   1
  -5  -7  -5 4122.28 844.876   1
   7   5   5 3843.83 646.233   1
   1   7   7 14602.0 1185.16   1
  -7  -1  -7 15404.6 1471.96   1
   1  -7  -7 15837.9 1102.84   1
  -1  -7  -7 14539.6 1147.61   1
   7   1   7 13755.0 1448.09   1
   7   3   7 686.361 307.035   1
  -3  -7  -7 972.649 320.229   1
   3   7   7 556.125 299.695   1
  -7  -3  -7 182.566 105.658   1
   3  -7  -7 1430.32 297.668   1
  -7  -7  -5 4.17234 197.160   1
   5   7   7 1702.77 461.988   1
   5  -7  -7 818.209 141.290   1
   7  -7  -5 641.309 79.5720   1
   7   7   5 1206.01 479.809   1
  -5  -7  -7 1346.57 448.160   1
   7   5   7 823.027 342.598   1
  -7  -5  -7 3.94873 544.648   1
  -8  -2   0 70.9665 107.890   1
   8   0   2 121.853 86.7955   1
   8  -2  -2 22836.1 938.270   1
   8  -2   2 23095.0 1484.08   1
  -8   2   2 23294.4 922.368   1
  -8  -2  -2 23972.6 1514.34   1
   8   2   2 22967.4 1433.73   1
  -8   2   4 11.2077 17.9273   1
  -8  -4  -2 81.0499 36.7010   1
   2   4   8 4.21605 70.4369   1
   8   4   2 43.5910 92.9684   1
   8   2   4 2.57248 107.359   1
   0  -6  -8 38.7988 32.2096   1
  -2   6   8 3164.85 413.562   1
  -6  -2  -8 3646.38 685.479   1
  -8  -2  -6 3713.78 665.524   1
   8   2   6 2062.24 504.656   1
   2  -6  -8 3374.10 440.482   1
  -8   2   6 1482.00 138.124   1
  -2  -6  -8 3943.35 683.783   1
  -2  -8  -6 4957.24 951.747   1
   2   6   8 3494.41 575.466   1
   6   2   8 2852.20 637.603   1
   8   6   4 136.960 148.307   1
  -8  -6  -4 258.040 173.586   1
   8   4   6 51.7610 110.236   1
  -4  -8  -6 154.389 861.447   1
  -6  -4  -8 53.1535 164.645   1
  -4  -6  -8 53.3863 219.103   1
   4  -8  -6 42.3093 31.5074   1
   8   6   6 145.641 268.235   1
   8   2   8 266.027 200.822   1
   2   8   8 231.189 155.055   1
   2  -8  -8 124.380 125.939   1
   9   1   1 11690.7 1030.31   1
   9  -1  -1 12510.8 909.937   1
   9   1  -1 11216.7 903.285   1
  -9   1  -1 11434.0 926.933   1
  -9   1   1 11115.7 814.182   1
  -9  -1  -1 11704.5 1063.99   1
  -9  -1   1 11163.5 907.962   1
   9  -1   1 11047.4 973.154   1
  -9  -3  -1 2963.76 553.756   1
   9   3   1 4043.94 675.615   1
  -9  -1  -3 3449.23 609.597   1
  -9   1   3 3603.87 421.363   1
   9  -3   1 4069.28 681.899   1
  -1   3   9 2854.44 451.110   1
   1   3   9 2872.96 504.366   1
   9  -3  -1 3550.96 450.415   1
  -9  -1   3 4286.21 603.938   1
   9   1   3 4295.93 698.716   1
   9  -1   3 2746.16 521.352   1
  -3   3   9 1126.76 257.625   1
  -9  -3  -3 912.568 315.781   1
   9   3   3 891.139 323.417   1
   3   3   9 1533.79 401.116   1
  -1  -5  -9 2023.77 402.211   1
   9   1   5 763.161 308.911   1
  -9  -1  -5 1463.61 390.505   1
   1  -5  -9 2468.11 429.897   1
   1   5   9 2080.58 473.236   1
  -1   5   9 2186.00 405.937   1
  -9   1   5 1288.34 208.888   1
   9   3   5 4215.26 779.736   1
   9   5   3 4420.07 825.665   1
  -5  -3  -9 4158.70 750.797   1
  -3  -5  -9 5700.15 819.699   1
  -9  -3  -5 4967.56 861.361   1
  -5   3   9 4721.11 506.123   1
   5   3   9 4576.49 865.114   1
  -9  -5  -3 4573.25 819.472   1
   9  -5  -3 4080.72 390.474   1
   3   5   9 5472.18 849.194   1
  -3   5   9 4897.52 500.664   1
   9   5   5 25211.2 1889.97   1
  -5  -5  -9 27787.9 2096.70   1
   5   5   9 26494.9 2057.86   1
   9   1   7 340.112 289.681   1
  -1  -9  -7 382.126 331.598   1
  -1   7   9 138.562 100.905   1
   3  -9  -7 527.233 180.568   1
   7   3   9 4.03124 478.891   1
   3  -7  -9 501.203 177.461   1
  -7   3   9 514.922 105.392   1
  -3  -7  -9 395.749 285.816   1
   3   7   9 359.417 245.990   1
   5  -9  -7 153.569 80.2458   1
   1  -9  -9 10260.5 1036.32   1
  -1  -9  -9 9607.03 1148.23   1
   3   9   9 6571.63 1032.95   1
   3  -9  -9 7755.58 867.035   1
 -10   0   0 3.85574 88.3243   1
  10   0   0 71.9723 89.6238   1
 -10   0  -2 2829.53 506.282   1
  10   2   0 3494.64 632.098   1
 -10   0   2 2692.27 423.622   1
  10  -2   0 3423.17 530.058   1
  10   0   2 2103.57 479.080   1
 -10  -2   0 2388.39 496.910   1
 -10   0   4 1.22512 72.3072   1
   0   4  10 106.552 146.435   1
 -10   0  -4 29.0763 98.3517   1
  10   0   4 2.75479 26.0350   1
  10  -4   0 133.681 105.245   1
  10   2   4 103.659 67.5741   1
  -2   4  10 39.4609 102.414   1
 -10  -2  -4 230.941 209.288   1
  10  -4  -2 49.5345 70.3858   1
  10   4   2 18.6454 62.3012   1
  -4  -4 -10 115.982 176.511   1
   4   4  10 91.0912 118.743   1
  -4   4  10 95.7391 34.4302   1
   0  -6 -10 7877.10 857.011   1
  10   0   6 7350.35 1079.37   1
   0   6  10 8502.87 920.811   1
  -4   6  10 3362.06 417.776   1
  -6   4  10 2753.00 302.582   1
   0 -10  -8 76.2520 78.3956   1
   0  -8 -10 85.0633 192.969   1
  -2 -10  -8 183.498 2957.41   1
   2   8  10 8.38460 105.655   1
   2  -8 -10 263.931 158.202   1
  -2  -8 -10 295.592 219.938   1
   0 -10 -10 7334.26 967.658   1
   2 -10 -10 176200. 4385.90   1
  11   1   1 7414.91 889.759   1
  11  -1  -1 7607.41 773.622   1
 -11   1  -1 7958.95 858.641   1
 -11   1   1 6745.56 706.494   1
 -11  -1  -1 6571.98 862.130   1
 -11  -1   1 6064.56 773.836   1
  11  -1   1 8077.80 908.616   1
  11   3   1 5187.85 863.586   1
 -11  -3   1 4138.06 726.596   1
 -11  -1  -3 4578.59 740.958   1
 -11   1   3 3847.34 502.752   1
 -11  -1   3 3760.94 583.105   1
  11  -3   1 4685.07 678.330   1
  11  -1   3 5053.88 842.334   1
 -11  -3  -1 4125.90 710.475   1
  11  -3  -1 4886.09 614.245   1
  11   1   3 5133.30 829.083   1
  11   3   3 1925.39 523.130   1
 -11  -3  -3 3608.02 738.109   1
  11  -5  -1 238.855 131.089   1
 -11   1   5 403.481 156.529   1
   1   5  11 574.838 273.486   1
  -1   5  11 128.266 82.4201   1
  11   1   5 66.2096 123.226   1
  -3  -5 -11 3391.73 711.093   1
   3   5  11 3145.85 698.108   1
  -3   5  11 3289.26 534.805   1
  -5   5  11 3535.54 441.716   1
   1   7  11 7204.84 954.119   1
  -1   7  11 6688.69 792.949   1
   1  -7 -11 6407.90 794.868   1
  -1  -7 -11 7179.79 932.730   1
  -3   7  11 12801.2 977.350   1
   3   7  11 12146.1 1398.07   1
   1   9  11 432.667 183.269   1
   1  -9 -11 60.7996 77.0023   1
   1 -11 -11 210.371 160.168   1
 -12   0   0 252409. 4951.23   1
 -12   0  -2 12.7604 99.4459   1
  12  -2   0 189.908 102.991   1
  12   2   0 73.3637 32.6605   1
  12   2   2 5656.38 837.071   1
  12  -2  -2 6088.58 610.455   1
 -12  -2  -2 4751.84 840.857   1
 -12  -2   2 6055.17 874.309   1
  12  -2   2 6012.55 899.476   1
 -12   0   4 233367. 4155.52   1
 -12  -4   0 233456. 5909.50   1
  12  -4   0 233981. 4209.32   1
  -2   6  12 499.701 234.269   1
   2   6  12 236.700 161.163   1
   0   8  12 187375. 4794.48   1
   0  -8 -12 185561. 4959.78   1
  -2   8  12 385.381 206.612   1
  13   1   1 5459.68 855.668   1
  13  -1  -1 5877.29 760.505   1
 -13   1  -1 4011.53 695.172   1
 -13  -1  -1 4015.42 703.366   1
 -13   1   1 4725.76 686.829   1
 -13  -1   1 2502.38 518.289   1
  13  -1   1 4956.63 768.863   1
 -13   1   3 2.11372 48.9319   1
  13   1   3 169.260 192.888   1
  13  -3   1 187.856 140.265   1
 -13  -1   3 26.8743 120.661   1
  13  -3  -1 37.4630 60.7201   1
  13  -1   3 14.7583 118.248   1
 -13  -3   1 389.767 251.616   1
   1   7  13 1908.35 602.502   1
  -1   7  13 1912.06 540.208   1
  -1   9  13 6336.24 1039.48   1
 -14   0   0 98.1478 85.2033   1
 -14   0   2 71.3042 75.3032   1
  14  -2   0 233.294 159.276   1
 -14  -2   2 167885. 5086.44   1
  14  -2   2 168909. 4663.08   1
  15  -1   1 490.640 247.986   1
  15  -1  -1 86.7552 156.967   1
  15  -3   1 1966.63 458.475   1
  16   0   0 189618. 5722.71   1
   0   0   0    0.00    0.00   0
TITL marseno_024 in Fd-3m
REM Fd-3m (#227 in standard setting)
CELL 0.41427   9.491303   9.491303   9.491303  90.0000  90.0000  90.0000
ZERR    4.00   0.000537   0.000537   0.000537   0.0000   0.0000   0.0000
LATT  4
SYMM -x+3/4,-y+1/4, z+1/2
SYMM -x+1/4, y+1/2,-z+3/4
SYMM  x+1/2,-y+3/4,-z+1/4
SYMM  z, x, y
SYMM  z+1/2,-x+3/4,-y+1/4
SYMM -z+3/4,-x+1/4, y+1/2
SYMM -z+1/4, x+1/2,-y+3/4
SYMM  y, z, x
SYMM -y+1/4, z+1/2,-x+3/4
SYMM  y+1/2,-z+3/4,-x+1/4
SYMM -y+3/4,-z+1/4, x+1/2
SYMM  y+3/4, x+1/4,-z+1/2
SYMM -y,-x,-z
SYMM  y+1/4,-x+1/2, z+3/4
SYMM -y+1/2, x+3/4, z+1/4
SYMM  x+3/4, z+1/4,-y+1/2
SYMM -x+1/2, z+3/4, y+1/4
SYMM -x,-z,-y
SYMM  x+1/4,-z+1/2, y+3/4
SYMM  z+3/4, y+1/4,-x+1/2
SYMM  z+1/4,-y+1/2, x+3/4
SYMM -z+1/2, y+3/4, x+1/4
SYMM -z,-y,-x
SFAC O As
UNIT 24.00 16.00
TREF
HKLF 4
END
;
_shelx_hkl_checksum              51914
_shelx_shelxl_version_number     2014/7
loop_
_space_group_symop_operation_xyz
'x, y, z'
'-y, x+1/4, z+1/4'
'-x+1/4, -y+1/4, z'
'y+1/4, -x, z+1/4'
'x+1/4, -z, y+1/4'
'x, -y+1/4, -z+1/4'
'x+1/4, z+1/4, -y'
'z+1/4, y+1/4, -x'
'-x+1/4, y, -z+1/4'
'-z, y+1/4, x+1/4'
'z, x, y'
'y, z, x'
'-y+1/4, -z+1/4, x'
'z, -x+1/4, -y+1/4'
'-y+1/4, z, -x+1/4'
'-z+1/4, -x+1/4, y'
'-z+1/4, x, -y+1/4'
'y, -z+1/4, -x+1/4'
'y+1/4, x+1/4, -z'
'-y, -x, -z'
'-x, z+1/4, y+1/4'
'-x, -z, -y'
'z+1/4, -y, x+1/4'
'-z, -y, -x'
'x, y+1/2, z+1/2'
'-y, x+3/4, z+3/4'
'-x+1/4, -y+3/4, z+1/2'
'y+1/4, -x+1/2, z+3/4'
'x+1/4, -z+1/2, y+3/4'
'x, -y+3/4, -z+3/4'
'x+1/4, z+3/4, -y+1/2'
'z+1/4, y+3/4, -x+1/2'
'-x+1/4, y+1/2, -z+3/4'
'-z, y+3/4, x+3/4'
'z, x+1/2, y+1/2'
'y, z+1/2, x+1/2'
'-y+1/4, -z+3/4, x+1/2'
'z, -x+3/4, -y+3/4'
'-y+1/4, z+1/2, -x+3/4'
'-z+1/4, -x+3/4, y+1/2'
'-z+1/4, x+1/2, -y+3/4'
'y, -z+3/4, -x+3/4'
'y+1/4, x+3/4, -z+1/2'
'-y, -x+1/2, -z+1/2'
'-x, z+3/4, y+3/4'
'-x, -z+1/2, -y+1/2'
'z+1/4, -y+1/2, x+3/4'
'-z, -y+1/2, -x+1/2'
'x+1/2, y, z+1/2'
'-y+1/2, x+1/4, z+3/4'
'-x+3/4, -y+1/4, z+1/2'
'y+3/4, -x, z+3/4'
'x+3/4, -z, y+3/4'
'x+1/2, -y+1/4, -z+3/4'
'x+3/4, z+1/4, -y+1/2'
'z+3/4, y+1/4, -x+1/2'
'-x+3/4, y, -z+3/4'
'-z+1/2, y+1/4, x+3/4'
'z+1/2, x, y+1/2'
'y+1/2, z, x+1/2'
'-y+3/4, -z+1/4, x+1/2'
'z+1/2, -x+1/4, -y+3/4'
'-y+3/4, z, -x+3/4'
'-z+3/4, -x+1/4, y+1/2'
'-z+3/4, x, -y+3/4'
'y+1/2, -z+1/4, -x+3/4'
'y+3/4, x+1/4, -z+1/2'
'-y+1/2, -x, -z+1/2'
'-x+1/2, z+1/4, y+3/4'
'-x+1/2, -z, -y+1/2'
'z+3/4, -y, x+3/4'
'-z+1/2, -y, -x+1/2'
'x+1/2, y+1/2, z'
'-y+1/2, x+3/4, z+1/4'
'-x+3/4, -y+3/4, z'
'y+3/4, -x+1/2, z+1/4'
'x+3/4, -z+1/2, y+1/4'
'x+1/2, -y+3/4, -z+1/4'
'x+3/4, z+3/4, -y'
'z+3/4, y+3/4, -x'
'-x+3/4, y+1/2, -z+1/4'
'-z+1/2, y+3/4, x+1/4'
'z+1/2, x+1/2, y'
'y+1/2, z+1/2, x'
'-y+3/4, -z+3/4, x'
'z+1/2, -x+3/4, -y+1/4'
'-y+3/4, z+1/2, -x+1/4'
'-z+3/4, -x+3/4, y'
'-z+3/4, x+1/2, -y+1/4'
'y+1/2, -z+3/4, -x+1/4'
'y+3/4, x+3/4, -z'
'-y+1/2, -x+1/2, -z'
'-x+1/2, z+3/4, y+1/4'
'-x+1/2, -z+1/2, -y'
'z+3/4, -y+1/2, x+1/4'
'-z+1/2, -y+1/2, -x'
'-x, -y, -z'
'y, -x-1/4, -z-1/4'
'x-1/4, y-1/4, -z'
'-y-1/4, x, -z-1/4'
'-x-1/4, z, -y-1/4'
'-x, y-1/4, z-1/4'
'-x-1/4, -z-1/4, y'
'-z-1/4, -y-1/4, x'
'x-1/4, -y, z-1/4'
'z, -y-1/4, -x-1/4'
'-z, -x, -y'
'-y, -z, -x'
'y-1/4, z-1/4, -x'
'-z, x-1/4, y-1/4'
'y-1/4, -z, x-1/4'
'z-1/4, x-1/4, -y'
'z-1/4, -x, y-1/4'
'-y, z-1/4, x-1/4'
'-y-1/4, -x-1/4, z'
'y, x, z'
'x, -z-1/4, -y-1/4'
'x, z, y'
'-z-1/4, y, -x-1/4'
'z, y, x'
'-x, -y+1/2, -z+1/2'
'y, -x+1/4, -z+1/4'
'x-1/4, y+1/4, -z+1/2'
'-y-1/4, x+1/2, -z+1/4'
'-x-1/4, z+1/2, -y+1/4'
'-x, y+1/4, z+1/4'
'-x-1/4, -z+1/4, y+1/2'
'-z-1/4, -y+1/4, x+1/2'
'x-1/4, -y+1/2, z+1/4'
'z, -y+1/4, -x+1/4'
'-z, -x+1/2, -y+1/2'
'-y, -z+1/2, -x+1/2'
'y-1/4, z+1/4, -x+1/2'
'-z, x+1/4, y+1/4'
'y-1/4, -z+1/2, x+1/4'
'z-1/4, x+1/4, -y+1/2'
'z-1/4, -x+1/2, y+1/4'
'-y, z+1/4, x+1/4'
'-y-1/4, -x+1/4, z+1/2'
'y, x+1/2, z+1/2'
'x, -z+1/4, -y+1/4'
'x, z+1/2, y+1/2'
'-z-1/4, y+1/2, -x+1/4'
'z, y+1/2, x+1/2'
'-x+1/2, -y, -z+1/2'
'y+1/2, -x-1/4, -z+1/4'
'x+1/4, y-1/4, -z+1/2'
'-y+1/4, x, -z+1/4'
'-x+1/4, z, -y+1/4'
'-x+1/2, y-1/4, z+1/4'
'-x+1/4, -z-1/4, y+1/2'
'-z+1/4, -y-1/4, x+1/2'
'x+1/4, -y, z+1/4'
'z+1/2, -y-1/4, -x+1/4'
'-z+1/2, -x, -y+1/2'
'-y+1/2, -z, -x+1/2'
'y+1/4, z-1/4, -x+1/2'
'-z+1/2, x-1/4, y+1/4'
'y+1/4, -z, x+1/4'
'z+1/4, x-1/4, -y+1/2'
'z+1/4, -x, y+1/4'
'-y+1/2, z-1/4, x+1/4'
'-y+1/4, -x-1/4, z+1/2'
'y+1/2, x, z+1/2'
'x+1/2, -z-1/4, -y+1/4'
'x+1/2, z, y+1/2'
'-z+1/4, y, -x+1/4'
'z+1/2, y, x+1/2'
'-x+1/2, -y+1/2, -z'
'y+1/2, -x+1/4, -z-1/4'
'x+1/4, y+1/4, -z'
'-y+1/4, x+1/2, -z-1/4'
'-x+1/4, z+1/2, -y-1/4'
'-x+1/2, y+1/4, z-1/4'
'-x+1/4, -z+1/4, y'
'-z+1/4, -y+1/4, x'
'x+1/4, -y+1/2, z-1/4'
'z+1/2, -y+1/4, -x-1/4'
'-z+1/2, -x+1/2, -y'
'-y+1/2, -z+1/2, -x'
'y+1/4, z+1/4, -x'
'-z+1/2, x+1/4, y-1/4'
'y+1/4, -z+1/2, x-1/4'
'z+1/4, x+1/4, -y'
'z+1/4, -x+1/2, y-1/4'
'-y+1/2, z+1/4, x-1/4'
'-y+1/4, -x+1/4, z'
'y+1/2, x+1/2, z'
'x+1/2, -z+1/4, -y-1/4'
'x+1/2, z+1/2, y'
'-z+1/4, y+1/2, -x-1/4'
'z+1/2, y+1/2, x'
loop_
_atom_site_label
_atom_site_type_symbol
_atom_site_fract_x
_atom_site_fract_y
_atom_site_fract_z
_atom_site_U_iso_or_equiv
_atom_site_adp_type
_atom_site_occupancy
_atom_site_site_symmetry_order
_atom_site_calc_flag
_atom_site_refinement_flags_posn
_atom_site_refinement_flags_adp
_atom_site_refinement_flags_occupancy
O1 O 0.3750 0.3750 0.1792(5) 0.0146(12) Uani 1 4 d S T P
As1 As 0.25265(5) 0.25265(5) 0.25265(5) 0.0117(7) Uani 1 6 d S T P
loop_
_atom_site_aniso_label
_atom_site_aniso_U_11
_atom_site_aniso_U_22
_atom_site_aniso_U_33
_atom_site_aniso_U_23
_atom_site_aniso_U_13
_atom_site_aniso_U_12
O1 0.0145(16) 0.0145(16) 0.015(2) 0.000 0.000 -0.0024(19)
As1 0.0117(7) 0.0117(7) 0.0117(7) -0.00009(14) -0.00009(14) -0.00009(14)
loop_
_atom_type_symbol
_atom_type_description
_atom_type_scat_dispersion_real
_atom_type_scat_dispersion_imag
_atom_type_scat_source
As As 0.3110 0.7990 'International Tables Vol C Tables 4.2.6.8 and 6.1.1.4'
O O 0.0020 0.0020 'International Tables Vol C Tables 4.2.6.8 and 6.1.1.4'
loop_
_geom_angle_atom_site_label_1
_geom_angle_atom_site_label_2
_geom_angle_atom_site_label_3
_geom_angle
_geom_angle_site_symmetry_1
_geom_angle_site_symmetry_3
As1 O1 As1 134.0(3) . 75
O1 As1 O1 94.89(19) 106_566 101_656
O1 As1 O1 94.89(19) 106_566 .
O1 As1 O1 94.89(19) 101_656 .
loop_
_geom_bond_atom_site_label_1
_geom_bond_atom_site_label_2
_geom_bond_distance
_geom_bond_site_symmetry_2
O1 As1 1.784(2) .
O1 As1 1.784(2) 75
As1 O1 1.784(2) 106_566
As1 O1 1.784(2) 101_656
