#------------------------------------------------------------------------------
#$Date: 2015-09-04 08:12:49 +0300 (Fri, 04 Sep 2015) $
#$Revision: 153928 $
#$URL: svn://www.crystallography.net/cod/cif/4/51/35/4513568.cif $
#------------------------------------------------------------------------------
#
# This file is available in the Crystallography Open Database (COD),
# http://www.crystallography.net/
#
# All data on this site have been placed in the public domain by the
# contributors.
#
data_4513568
loop_
_publ_author_name
'Gu\'nka, Piotr A.'
'Dziubek, Kamil F.'
'G\/ladysiak, Andrzej'
'Dranka, Maciej'
'Piechota, Jacek'
'Hanfland, Michael'
'Katrusiak, Andrzej'
'Zachara, Janusz'
_publ_section_title
;
 Compressed Arsenolite As4O6and Its Helium Clathrate As4O6&#x00B7;2He
;
_journal_issue                   8
_journal_name_full               'Crystal Growth &amp; Design'
_journal_page_first              3740
_journal_paper_doi               10.1021/acs.cgd.5b00390
_journal_volume                  15
_journal_year                    2015
_chemical_formula_moiety         'As4 O6'
_chemical_formula_sum            'As4 O6'
_chemical_formula_weight         395.68
_chemical_name_common            arsenolite
_space_group_crystal_system      cubic
_space_group_IT_number           227
_space_group_name_Hall           '-F 4vw 2vw 3'
_space_group_name_H-M_alt        'F d -3 m'
_symmetry_space_group_name_Hall  '-F 4vw 2vw 3'
_symmetry_space_group_name_H-M   'F d -3 m :2'
_atom_sites_solution_primary     direct
_audit_creation_date             2014-10-15
_audit_creation_method
;
Olex2 1.2-beta
(compiled 2014.09.19 svn.r3010 for OlexSys, GUI svn.r4874)
;
_cell_angle_alpha                90
_cell_angle_beta                 90
_cell_angle_gamma                90
_cell_formula_units_Z            8
_cell_length_a                   10.90107(12)
_cell_length_b                   10.90107(12)
_cell_length_c                   10.90107(12)
_cell_measurement_pressure       4.9e4(5)
_cell_measurement_reflns_used    380
_cell_measurement_temperature    293(2)
_cell_measurement_theta_max      19.4470
_cell_measurement_theta_min      1.8850
_cell_volume                     1295.41(2)
_computing_cell_refinement
;
CrysAlisPro, Agilent Technologies,
Version 1.171.37.34 (release 22-05-2014 CrysAlis171 .NET)
(compiled May 22 2014,16:03:01)
;
_computing_data_collection
;
CrysAlisPro, Agilent Technologies,
Version 1.171.37.34 (release 22-05-2014 CrysAlis171 .NET)
(compiled May 22 2014,16:03:01)
;
_computing_data_reduction
;
CrysAlisPro, Agilent Technologies,
Version 1.171.37.34 (release 22-05-2014 CrysAlis171 .NET)
(compiled May 22 2014,16:03:01)
;
_computing_molecular_graphics    'Olex2 (Dolomanov et al., 2009)'
_computing_publication_material  'Olex2 (Dolomanov et al., 2009)'
_computing_structure_refinement  'ShelXL (Sheldrick, 2008)'
_computing_structure_solution    'ShelXT (Sheldrick, 2008)'
_diffrn_ambient_environment      He
_diffrn_ambient_pressure         4.9e4(5)
_diffrn_ambient_temperature      293(2)
_diffrn_detector                 'CCD plate'
_diffrn_measured_fraction_theta_full 0.949
_diffrn_measured_fraction_theta_max 0.709
_diffrn_measurement_details
;
  1 phi    148.00  212.00   0.5000    1.0000
omega____ theta____ kappa____ phi______ frames
   0.0000    0.0000    0.0000     -     128
;
_diffrn_measurement_device       'abstract diffractometer'
_diffrn_measurement_device_type
'MAR-CrysAlisPro-abstract goniometer: imported MAR images'
_diffrn_measurement_method       '\p scans'
_diffrn_orient_matrix_UB_11      -0.0009896000
_diffrn_orient_matrix_UB_12      -0.0222237000
_diffrn_orient_matrix_UB_13      0.0308145000
_diffrn_orient_matrix_UB_21      -0.0281962000
_diffrn_orient_matrix_UB_22      0.0210798000
_diffrn_orient_matrix_UB_23      0.0143005000
_diffrn_orient_matrix_UB_31      -0.0254613000
_diffrn_orient_matrix_UB_32      -0.0224906000
_diffrn_orient_matrix_UB_33      -0.0170356000
_diffrn_radiation_monochromator  synchrotron
_diffrn_radiation_probe          x-ray
_diffrn_radiation_wavelength     0.41427
_diffrn_reflns_av_R_equivalents  0.0343
_diffrn_reflns_av_unetI/netI     0.0208
_diffrn_reflns_laue_measured_fraction_full 0.949
_diffrn_reflns_laue_measured_fraction_max 0.709
_diffrn_reflns_limit_h_max       17
_diffrn_reflns_limit_h_min       -18
_diffrn_reflns_limit_k_max       16
_diffrn_reflns_limit_k_min       -14
_diffrn_reflns_limit_l_max       10
_diffrn_reflns_limit_l_min       -12
_diffrn_reflns_number            636
_diffrn_reflns_point_group_measured_fraction_full 0.949
_diffrn_reflns_point_group_measured_fraction_max 0.709
_diffrn_reflns_theta_full        14.392
_diffrn_reflns_theta_max         20.129
_diffrn_reflns_theta_min         1.886
_diffrn_source                   synchrotron
_exptl_absorpt_coefficient_mu    4.688
_exptl_absorpt_correction_T_max  1.00000
_exptl_absorpt_correction_T_min  0.57435
_exptl_absorpt_correction_type   multi-scan
_exptl_absorpt_process_details
;
CrysAlisPro, Agilent Technologies,
Version 1.171.37.34 (release 22-05-2014 CrysAlis171 .NET)
(compiled May 22 2014,16:03:01)
Empirical absorption correction using spherical harmonics,
 implemented in SCALE3 ABSPACK scaling algorithm.
;
_exptl_crystal_density_diffrn    4.058
_exptl_crystal_description       block
_exptl_crystal_F_000             1440
_exptl_crystal_size_max          0.065
_exptl_crystal_size_mid          0.04
_exptl_crystal_size_min          0.02
_refine_diff_density_max         0.615
_refine_diff_density_min         -0.663
_refine_diff_density_rms         0.183
_refine_ls_extinction_coef       0.0157(19)
_refine_ls_extinction_expression Fc^*^=kFc[1+0.001xFc^2^\l^3^/sin(2\q)]^-1/4^
_refine_ls_extinction_method     'SHELXL-2014/7 (Sheldrick 2014'
_refine_ls_goodness_of_fit_ref   1.267
_refine_ls_hydrogen_treatment    undef
_refine_ls_matrix_type           full
_refine_ls_number_parameters     9
_refine_ls_number_reflns         129
_refine_ls_number_restraints     0
_refine_ls_restrained_S_all      1.267
_refine_ls_R_factor_all          0.0295
_refine_ls_R_factor_gt           0.0280
_refine_ls_shift/su_max          0.000
_refine_ls_shift/su_mean         0.000
_refine_ls_structure_factor_coef Fsqd
_refine_ls_weighting_details
'w=1/[\s^2^(Fo^2^)+(0.0360P)^2^+6.9160P] where P=(Fo^2^+2Fc^2^)/3'
_refine_ls_weighting_scheme      calc
_refine_ls_wR_factor_gt          0.0621
_refine_ls_wR_factor_ref         0.0658
_reflns_Friedel_coverage         0.000
_reflns_number_gt                122
_reflns_number_total             129
_reflns_threshold_expression     'I > 2\s(I)'
_cod_data_source_file            cg5b00390_si_002.cif
_cod_data_source_block           marseno_008
_cod_original_cell_volume        1295.41(4)
_cod_database_code               4513568
_shelx_space_group_comment
;
The symmetry employed for this shelxl refinement is uniquely defined
by the following loop, which should always be used as a source of
symmetry information in preference to the above space-group names.
They are only intended as comments.
;
_olex2_refinement_description
;
;
_shelx_res_file
;
    marseno_008.res created by SHELXL-2014/7

TITL marseno_008_a.res in Fd-3m
CELL 0.41427 10.901074 10.901074 10.901074 90 90 90
ZERR 8 0.000117 0.000117 0.000117 0 0 0
LATT 4
SYMM 0.75-X,0.25-Y,0.5+Z
SYMM 0.25-X,0.5+Y,0.75-Z
SYMM 0.5+X,0.75-Y,0.25-Z
SYMM +Z,+X,+Y
SYMM 0.5+Z,0.75-X,0.25-Y
SYMM 0.75-Z,0.25-X,0.5+Y
SYMM 0.25-Z,0.5+X,0.75-Y
SYMM +Y,+Z,+X
SYMM 0.25-Y,0.5+Z,0.75-X
SYMM 0.5+Y,0.75-Z,0.25-X
SYMM 0.75-Y,0.25-Z,0.5+X
SYMM 0.75+Y,0.25+X,0.5-Z
SYMM -Y,-X,-Z
SYMM 0.25+Y,0.5-X,0.75+Z
SYMM 0.5-Y,0.75+X,0.25+Z
SYMM 0.75+X,0.25+Z,0.5-Y
SYMM 0.5-X,0.75+Z,0.25+Y
SYMM -X,-Z,-Y
SYMM 0.25+X,0.5-Z,0.75+Y
SYMM 0.75+Z,0.25+Y,0.5-X
SYMM 0.25+Z,0.5-Y,0.75+X
SYMM 0.5-Z,0.75+Y,0.25+X
SYMM -Z,-Y,-X

SFAC O As
DISP As 0.311 0.799 1882.762
DISP O 0.002 0.002 10.067
UNIT 48 32

L.S. 10
PLAN  20
REM Old TITL marseno_008 in Fd-3m #227
BOND $H
LIST 6
fmap 2
ACTA
REM <HKL>E:/X-Ray_Data_Backup/ESRF_id09_2014_10/data/arsenolite/arseno_008/str
REM uct/olex2_marseno_008/marseno_008.hkl</HKL>

WGHT    0.036000    6.916000
EXTI    0.015713
FVAR       1.48878
AS1   2    0.270310    0.270310    0.270310    10.16667    0.01458    0.01458 =
         0.01458   -0.00133   -0.00133   -0.00133
O1    1    0.375000    0.375000    0.198435    10.25000    0.01937    0.01937 =
         0.01036    0.00000    0.00000   -0.00184
HKLF 4

REM  marseno_008_a.res in Fd-3m
REM R1 =  0.0280 for     122 Fo > 4sig(Fo)  and  0.0295 for all     129 data
REM      9 parameters refined using      0 restraints

END

WGHT      0.0363      6.9139

REM Highest difference peak  0.615,  deepest hole -0.663,  1-sigma level  0.183
Q1    1   0.2500  0.2500  0.0000  10.08333  0.05    0.61
Q2    1   0.3084  0.2765  0.2765  10.50000  0.05    0.60
Q3    1   0.3117  0.4383  0.1618  10.50000  0.05    0.55
Q4    1   0.4672  0.3113  0.1440  11.00000  0.05    0.50
Q5    1   0.3983  0.3983  0.0861  10.50000  0.05    0.47
Q6    1   0.2255  0.0781  0.2255  10.50000  0.05    0.46
Q7    1   0.2480  0.3711  0.2480  10.50000  0.05    0.44
Q8    1   0.2710  0.3932  0.2146  11.00000  0.05    0.41
Q9    1   0.2739  0.2739  0.3413  10.50000  0.05    0.40
Q10   1   0.1933  0.2734  0.2734  10.50000  0.05    0.38
Q11   1   0.4082  0.4082  0.0497  10.50000  0.05    0.38
Q12   1   0.2479  0.2179  0.3716  11.00000  0.05    0.38
Q13   1   0.1250  0.1250  0.1250  10.04167  0.05    0.37
Q14   1   0.2505  0.3659  0.2904  11.00000  0.05    0.35
Q15   1   0.2697  0.1637  0.2697  10.50000  0.05    0.33
Q16   1   0.4220  0.2863  0.1962  11.00000  0.05    0.28
Q17   1   0.2016  0.2016  0.2016  10.16667  0.05    0.25
Q18   1   0.2919  0.1625  0.1625  10.50000  0.05    0.24
Q19   1   0.3750  0.3750  0.3119  10.25000  0.05    0.16
Q20   1   0.3750  0.3750  0.1596  10.25000  0.05    0.09
;
_shelx_res_checksum              6600
_shelx_hkl_file
;
   1  -1  -1 117090. 1103.06   1
  -2   0   0 161.314 38.5581   1
   2   0   0 7.39568 11.0433   1
  -2   2   0 2871.61 239.757   1
   2  -2   0 2468.11 222.936   1
   0   2   2 2819.33 169.886   1
   0  -2  -2 2336.13 154.155   1
  -3  -1  -1 5368.10 207.660   1
  -3   1   1 6294.96 328.039   1
  -1   3   1 6349.96 355.045   1
   3  -1  -1 6094.27 346.349   1
   1  -3  -1 6482.83 349.043   1
   3   1   1 6273.34 230.138   1
  -1   3   3 186519. 1951.99   1
   1   3   3 190517. 1484.08   1
  -3   3   1 191169. 2369.83   1
   3  -1  -3 189461. 2243.03   1
   3  -3  -1 185967. 2286.13   1
  -3  -3  -3 161378. 757.315   1
  -3   3   3 110394. 1899.16   1
   0  -4  -2 15.1057 24.4089   1
   4   2   0 13.3005 16.6979   1
   0   4   2 6.00320 13.7755   1
   4   0  -2 60.6792 49.4061   1
   2  -4  -2 58311.8 1312.33   1
  -4   2   2 56010.0 1277.58   1
  -2   4   2 57291.7 1256.07   1
   4  -2  -2 58641.7 1343.68   1
  -4  -2  -2 55201.9 642.610   1
  -4   4   2 54198.7 1475.97   1
   4  -4  -2 53094.6 1428.98   1
   2  -4  -4 53896.9 1352.62   1
  -4   2   4 55310.6 1377.27   1
  -2   4   4 52522.3 1263.47   1
   4  -2  -4 58730.0 1538.99   1
  -4  -4  -4 315945. 1215.51   1
   5   1   1 86501.9 1291.02   1
   5  -1  -1 87503.9 1591.96   1
  -1   5   1 85851.0 1520.40   1
  -5   1  -1 78610.8 1533.50   1
  -5  -1  -1 81791.8 1180.86   1
  -5   1   1 87299.2 1529.64   1
   5   1  -1 81341.0 1401.66   1
  -5  -1   1 82790.4 1388.88   1
   5  -1   1 80299.4 1484.97   1
  -1  -5  -3 33358.2 824.346   1
  -1   5   3 32082.5 994.498   1
   5  -3  -1 30295.9 1092.26   1
  -5   3  -1 31983.1 1151.39   1
   1  -5  -3 30857.3 983.426   1
  -5   3   1 28188.8 1033.28   1
  -3   5   1 34481.5 1257.12   1
   5  -1  -3 32894.0 1085.28   1
   3  -5  -1 33154.8 1090.81   1
  -5   1   3 29805.4 1005.34   1
   3  -5  -3 8048.16 582.218   1
   3  -3  -5 9063.63 609.462   1
  -5  -3  -3 7778.26 175.792   1
  -3   3   5 7904.27 547.662   1
   3   5   3 6493.54 241.641   1
  -5   3   3 7855.93 587.299   1
   5  -3  -3 8549.77 626.855   1
  -3   5   3 8201.79 570.124   1
   5  -5  -1 272007. 3568.46   1
  -5   5   3 43131.3 1524.81   1
  -5   3   5 37128.3 1318.59   1
  -3   5   5 40216.7 1262.57   1
   5  -5  -3 40815.5 1478.76   1
   3  -5  -5 41535.7 1403.08   1
   5  -3  -5 39034.2 1330.16   1
  -3  -5  -5 43067.0 827.610   1
   5  -5  -5 180247. 3154.70   1
  -5   5   5 183049. 2993.58   1
  -6   0   0 4.51982 13.5494   1
   0   6   2 2535.46 289.310   1
   6  -2   0 1910.24 271.773   1
  -6   0   2 2480.42 281.916   1
   6   2   0 1883.30 209.354   1
   6   0  -2 2541.56 281.167   1
  -6   0  -2 2251.74 271.346   1
  -6   2   0 2312.22 290.824   1
   0  -6  -4 1.19200 18.9506   1
   0  -4  -6 15.1778 17.8739   1
   0   6   4 23.5136 27.1635   1
  -6   4   0 9.50091 41.5188   1
   6  -4   0 11.9688 27.1831   1
  -4   6   2 18435.5 1000.40   1
  -6   4   2 17544.5 936.161   1
   2  -6  -4 21317.1 973.125   1
  -2  -6  -4 21770.4 692.896   1
   6  -4  -2 18335.5 955.703   1
   6  -2  -4 18747.6 887.434   1
  -6   2   4 19298.6 915.585   1
  -2   6   4 19570.0 903.061   1
   4  -6  -2 18711.7 955.067   1
   2   6   4 19975.9 636.806   1
   2  -4  -6 19298.8 901.776   1
   6   4   2 20703.8 457.109   1
  -6   4   4 19754.8 988.738   1
  -4   4   6 20797.1 1010.96   1
   4  -4  -6 17164.4 907.804   1
   4  -6  -4 20411.7 1057.96   1
   6  -4  -4 19037.6 1025.42   1
  -4   6   4 20664.0 1030.24   1
   0  -6  -6 272525. 3268.41   1
   0   6   6 263937. 3058.23   1
  -2  -6  -6 121357. 1794.71   1
   2  -6  -6 118360. 2479.25   1
  -6   6   2 138164. 2975.18   1
  -2   6   6 134766. 2330.35   1
   6  -6  -2 131554. 2705.81   1
   6  -4  -6 49355.1 1761.82   1
   4  -6  -6 44744.9 1616.87   1
  -4  -6  -6 49917.2 915.939   1
  -4   6   6 45279.5 1527.27   1
   6  -6  -4 49997.6 1839.36   1
  -6   4   6 50364.4 1704.12   1
  -6   6   4 43038.3 1574.17   1
  -6   6   6 55599.1 1856.82   1
   6  -6  -6 52777.3 1916.33   1
   7   1  -1 59467.4 1520.93   1
  -7  -1  -1 56391.1 1221.02   1
  -7   1  -1 55211.8 1462.33   1
   7  -1  -1 54449.5 1548.15   1
  -7  -1   1 55738.5 1292.66   1
   7   1   1 57680.3 1345.26   1
   7  -1   1 57221.4 1508.54   1
  -7   1   1 55128.0 1466.86   1
   1   7   3 126453. 2048.23   1
  -7   3   1 120181. 2443.11   1
  -1   7   3 118373. 2177.05   1
  -7  -1  -3 111765. 1825.44   1
   7   3   1 113554. 1631.45   1
   1  -7  -3 106418. 2168.59   1
   7  -3   1 119520. 2339.17   1
   7  -1  -3 115543. 2383.20   1
   7  -3  -1 126251. 2532.83   1
  -7   1   3 117162. 2223.80   1
  -7   3  -1 125980. 2577.05   1
  -3   7   3 283180. 3768.15   1
   3  -7  -3 290296. 3827.72   1
   3   7   3 288389. 2501.31   1
   1  -5  -7 20564.9 940.933   1
   7   5   1 22155.2 617.722   1
   5  -7  -1 19810.9 1028.60   1
  -5   7   1 20866.8 1181.82   1
   7  -5  -1 20773.3 1109.03   1
   1   7   5 20458.2 775.156   1
  -1   7   5 20965.1 940.657   1
   1  -7  -5 19818.0 948.421   1
  -1  -7  -5 19623.0 816.801   1
  -7   5   1 21080.5 1168.94   1
   7  -3  -5 10925.7 840.759   1
  -7   5   3 10512.5 784.794   1
  -3   5   7 10163.8 723.299   1
   5   7   3 10712.1 353.933   1
  -5   7   3 9238.07 813.876   1
   3  -5  -7 9062.48 664.355   1
  -7   3   5 11037.8 787.019   1
   3   7   5 11540.0 464.492   1
  -3  -7  -5 10430.1 480.415   1
   5  -7  -3 9375.53 757.170   1
  -7  -3  -5 9689.33 391.314   1
  -3   7   5 10709.6 766.328   1
   7  -5  -3 9486.09 804.962   1
   3  -7  -5 9259.75 743.124   1
   5  -5  -7 4.69933 35.2189   1
   5  -7  -5 40.8441 64.9220   1
  -7   5   5 18.9331 38.6184   1
   1  -7  -7 68532.1 1804.83   1
   7  -7  -1 67741.4 2136.32   1
  -1  -7  -7 75438.9 1690.06   1
  -1   7   7 73935.0 1812.36   1
  -3   7   7 149560. 2803.02   1
  -3  -7  -7 138880. 2076.00   1
   3  -7  -7 146547. 2943.65   1
  -7   7   3 149630. 3410.36   1
   7  -7  -3 140471. 3218.49   1
   7  -5  -7 7630.84 793.792   1
   5  -7  -7 7325.78 738.424   1
  -5   7   7 6541.28 647.608   1
  -5  -7  -7 7692.05 324.376   1
   7  -7  -5 5596.68 685.956   1
  -7   5   7 7991.79 759.474   1
  -7   7   5 8855.67 823.301   1
   7  -7  -7 125942. 3400.80   1
  -7   7   7 118499. 3023.11   1
  -8   0   0 225250. 2932.22   1
   8   0   0 229225. 3041.63   1
   8   2   0 14.4429 42.3241   1
   8   0   2 19.9194 22.8545   1
  -8   0   2 18.8098 36.7731   1
   8   0  -2 17.9183 23.5920   1
  -8   0  -2 55.0272 49.9795   1
  -8   2   2 10470.2 748.194   1
  -2   8   2 8578.90 683.713   1
   8  -2  -2 9327.57 740.903   1
   8   2   2 9566.08 501.047   1
  -8  -2  -2 8791.85 452.245   1
   8   2  -2 8619.55 604.550   1
  -8   2  -2 9379.58 692.918   1
   8   4   0 124062. 1985.05   1
   0  -8  -4 132847. 2384.20   1
  -8   4   0 131508. 2943.03   1
   0   8   4 130224. 2438.28   1
   8  -4   0 129458. 2822.20   1
  -4   8   2 85822.8 2466.39   1
  -2   8   4 83507.5 2095.56   1
   2  -8  -4 91228.3 2195.51   1
   8  -4  -2 81821.5 2333.58   1
   2   8   4 89604.7 1688.05   1
   8  -2  -4 83398.7 2379.28   1
  -8   2   4 90431.6 2246.80   1
  -8   4   2 88944.5 2349.34   1
  -8  -2  -4 88090.9 1478.33   1
   4  -8  -2 85885.3 2206.59   1
   8   4   2 79293.8 1273.83   1
  -8   4   4 39867.3 1555.15   1
   4   8   4 42336.6 892.296   1
  -4   8   4 37599.7 1575.09   1
   8  -4  -4 37976.7 1613.07   1
   4  -8  -4 38742.9 1557.94   1
   8  -6   0 8.96470 26.5574   1
  -8   6   0 2.83321 49.7967   1
   0   8   6 19.6311 31.0166   1
   6  -8  -2 6767.11 697.748   1
   2   8   6 7631.29 457.641   1
  -2  -8  -6 7181.46 477.207   1
  -2   8   6 7540.49 631.571   1
   8   6   2 7066.27 300.265   1
  -6   8   2 7189.17 810.877   1
   2  -8  -6 6954.72 639.730   1
   8  -6  -2 7971.28 759.264   1
  -2  -6  -8 7871.96 511.578   1
  -4   8   6 40728.8 1750.80   1
  -8  -4  -6 32706.2 619.494   1
  -4   6   8 36444.8 1513.23   1
   4  -6  -8 36394.3 1676.25   1
   8  -4  -6 34319.5 1614.34   1
  -6   8   4 34332.8 1690.73   1
  -4  -6  -8 34511.9 929.812   1
  -8   4   6 33705.2 1543.64   1
  -8   6   4 31903.1 1550.79   1
   6  -8  -4 32508.2 1610.61   1
   8  -6  -4 32338.6 1627.35   1
   4  -8  -6 36767.6 1629.03   1
  -6   6   8 28797.0 1495.16   1
   8  -6  -6 30282.8 1628.55   1
  -8   6   6 30860.0 1510.85   1
  -6   8   6 34099.8 1644.10   1
   6  -6  -8 31975.3 1640.74   1
   6  -8  -6 32695.1 1665.21   1
   0  -8  -8 12044.0 770.186   1
  -2  -8  -8 158325. 2603.41   1
   2  -8  -8 150376. 3106.02   1
  -8   8   2 155988. 3996.71   1
   8  -8  -2 163093. 3774.76   1
  -2   8   8 157935. 2922.26   1
   4  -8  -8 31588.6 1592.52   1
  -8   8   4 31741.1 1699.29   1
  -4   8   8 31715.1 1465.82   1
   8  -8  -4 29572.8 1642.51   1
  -4  -8  -8 32960.1 990.045   1
   6  -8  -8 68926.3 2604.08   1
  -8   6   8 59392.9 2339.53   1
  -6   8   8 66391.5 2332.30   1
  -8   8   6 61282.6 2339.48   1
  -9   1   1 146868. 2669.68   1
  -9  -1  -1 150220. 2287.83   1
   9   1  -1 126690. 2618.91   1
  -9   1  -1 152989. 2816.05   1
   9  -1   1 123813. 2555.73   1
   9  -1  -1 148147. 2885.66   1
   9   1   1 147424. 2497.91   1
  -9  -1   1 146069. 2392.94   1
   9  -3  -1 86345.3 2342.24   1
  -1   9   3 83497.7 2181.20   1
   9   3   1 85376.1 1674.50   1
  -9   3   1 88517.2 2381.36   1
  -9   3  -1 92523.7 2469.70   1
   9  -3   1 93456.6 2329.98   1
   9  -1  -3 88338.7 2395.21   1
  -9   1   3 87091.0 2172.15   1
  -9   1  -3 89719.6 2140.49   1
   9   1  -3 87227.8 2201.38   1
  -9  -1  -3 90212.5 1790.22   1
   9   3  -1 91988.9 1898.24   1
   1   9   3 90709.7 2030.27   1
   9  -3  -3 12522.6 986.188   1
  -3   9   3 13751.7 997.327   1
  -9   3   3 11061.8 862.358   1
  -9  -3  -3 12093.4 483.260   1
   3   9   3 12581.3 659.132   1
  -9   5  -1 129000. 3226.93   1
  -9   5   1 130910. 3355.59   1
   1  -9  -5 123401. 2527.32   1
   9   5   1 131545. 1954.38   1
  -1  -9  -5 127782. 2305.87   1
  -1   9   5 121411. 2568.88   1
   1   9   5 125885. 2294.28   1
   9  -5  -1 124709. 3056.32   1
   3   9   5 24192.5 814.210   1
  -5   9   3 24876.4 1432.25   1
  -9  -3  -5 24120.6 702.688   1
   9  -3  -5 22242.1 1312.22   1
  -9   3   5 24613.1 1299.49   1
   5   9   3 24529.9 773.647   1
   3  -9  -5 24032.9 1242.64   1
  -9   5   3 20722.4 1250.58   1
  -3   9   5 24131.5 1265.20   1
   5  -9  -3 25477.8 1333.99   1
   9  -5  -3 24124.7 1422.92   1
   9  -5  -5 144537. 3580.57   1
  -9   5   5 146511. 3293.10   1
   5   9   5 145050. 1522.85   1
  -5   9   5 151096. 3426.29   1
   5  -9  -5 154469. 3489.38   1
  -9   7   1 1915.48 440.410   1
   9  -7  -1 1779.21 382.475   1
  -1  -9  -7 2061.88 307.576   1
  -1   9   7 1704.74 287.754   1
   1  -7  -9 2156.31 376.061   1
  -1  -7  -9 1884.53 314.460   1
   1   9   7 1816.23 255.499   1
   1  -9  -7 1644.74 339.715   1
   7  -9  -3 24877.2 1492.80   1
  -3   9   7 21666.2 1189.87   1
  -7   9   3 23918.2 1615.11   1
   9  -7  -3 22199.2 1396.41   1
   3  -7  -9 20451.0 1248.73   1
   7   9   3 21298.2 530.897   1
  -3  -9  -7 22853.5 863.628   1
  -9   7   3 22564.6 1526.57   1
   3  -9  -7 20013.0 1206.42   1
  -9   7   5 3.38431 71.7391   1
   9  -5  -7 184.062 144.396   1
  -5   9   7 53.6616 47.3299   1
  -5  -7  -9 29.0034 29.9862   1
   5  -7  -9 204.055 140.446   1
   7  -9  -5 3.31680 24.8576   1
   9  -7  -5 30.1114 70.9207   1
   5  -9  -7 54.0037 35.5518   1
  -7   9   5 78.1291 88.0909   1
  -7   7   9 7482.37 842.589   1
  -7   9   7 8974.55 900.458   1
  -9   7   7 8407.48 861.553   1
  -1  -9  -9 33490.5 1365.34   1
   1  -9  -9 33447.8 1551.82   1
  -3   9   9 17803.4 1107.30   1
   3  -9  -9 19074.7 1296.94   1
  -9   9   3 18217.9 1452.41   1
  -3  -9  -9 19926.0 923.614   1
   5  -9  -9 71416.6 2810.97   1
  -5  -9  -9 70512.8 1341.91   1
  -5   9   9 68735.1 2383.98   1
  10   2   0 34736.3 1266.61   1
 -10  -2   0 33655.6 1148.70   1
 -10   0   2 29482.3 1275.81   1
  10   0  -2 37122.2 1673.45   1
 -10   0  -2 33107.9 1293.77   1
  10   0   2 34456.1 1249.23   1
 -10   2   0 34020.8 1467.11   1
  10  -2   0 34229.5 1438.56   1
  10  -2  -2 33847.8 1561.41   1
 -10   2  -2 31281.2 1438.13   1
 -10   2   2 27778.0 1302.99   1
 -10  -2  -2 29278.8 950.793   1
  10   2   2 29727.6 1052.20   1
  10   2  -2 31297.9 1327.58   1
 -10   4   0 68.9265 93.9545   1
  10  -4   0 7.98997 44.6323   1
  10   0  -4 7.35054 69.9233   1
 -10   0  -4 5.42246 25.3425   1
   0  10   4 23.6016 52.6966   1
   2  10   4 22983.2 965.664   1
  -2  10   4 23744.7 1249.99   1
  10  -2  -4 26193.8 1497.88   1
 -10  -2  -4 23498.0 900.666   1
   2 -10  -4 24796.0 1218.92   1
  10   4   2 26018.0 882.489   1
 -10   4   2 23137.7 1291.18   1
  10  -4  -2 23894.6 1386.83   1
  -4  10   4 1874.36 414.380   1
   4  10   4 2052.53 249.008   1
   4 -10  -4 2150.45 400.193   1
 -10   4   4 2316.82 420.701   1
  10  -4  -4 2126.71 421.996   1
 -10   6   0 81425.6 2804.93   1
  10  -6   0 88674.6 2684.46   1
   0 -10  -6 90549.3 2265.67   1
   0  10   6 89290.8 2187.23   1
   2  10   6 10498.3 624.013   1
 -10   6   2 9705.58 1009.11   1
   2 -10  -6 10917.7 863.444   1
  10  -6  -2 8670.23 859.082   1
  -2  10   6 10025.3 792.462   1
 -10  -2  -6 10366.2 643.313   1
  10   6   2 9370.48 463.362   1
 -10   6   4 106120. 3129.02   1
  10  -4  -6 104866. 3319.80   1
  -6  10   4 103894. 3224.55   1
   6  10   4 98904.0 1347.46   1
   4  10   6 100008. 1505.81   1
   6 -10  -4 96314.2 3002.41   1
   4 -10  -6 96118.5 2767.32   1
 -10   4   6 104953. 3065.29   1
  -4  10   6 99552.6 2762.99   1
  10  -6  -4 96170.3 3135.21   1
 -10  -4  -6 100693. 1267.54   1
 -10   6   6 2792.19 511.708   1
   6 -10  -6 3166.52 535.515   1
  -6  10   6 3529.86 576.893   1
   0  10   8 1.65437 43.8357   1
   0  -8 -10 40.9617 63.8130   1
  -2  -8 -10 222.798 103.550   1
  10   8   2 424.776 82.4157   1
  -2  10   8 233.781 105.364   1
   2  -8 -10 404.550 189.610   1
 -10   8   2 260.873 189.040   1
  -2 -10  -8 269.865 103.381   1
   2 -10  -8 181.285 110.512   1
  -4  -8 -10 3221.72 352.969   1
   4  -8 -10 3493.20 572.399   1
  -4  10   8 3479.13 514.494   1
  -8  10   4 3807.90 698.700   1
 -10   8   4 3437.68 601.854   1
   4 -10  -8 3660.55 587.301   1
  -6  -8 -10 19092.6 712.800   1
  -6  10   8 19052.5 1352.27   1
   0 -10 -10 149264. 3170.39   1
  -2 -10 -10 86.6899 73.8289   1
   2 -10 -10 86.1286 94.4334   1
  -4  10  10 88986.3 2739.30   1
  -4 -10 -10 89158.8 1879.70   1
 -11  -1   1 114763. 2419.94   1
  11   1  -1 117166. 2692.43   1
 -11   1   1 109336. 2564.79   1
 -11  -1  -1 111975. 2200.62   1
  11  -1   1 119163. 2717.69   1
 -11   1  -1 111992. 2585.10   1
  11   1   1 111527. 2419.37   1
  11  -1  -1 111381. 2809.09   1
  11  -1  -3 67710.0 2347.12   1
 -11   1  -3 65620.5 2039.08   1
 -11   3  -1 65935.4 2319.85   1
  11   3  -1 67063.9 1923.59   1
  11   1  -3 66159.9 2224.69   1
  11  -3   1 66062.5 2166.24   1
 -11  -1  -3 63308.0 1629.11   1
 -11   1   3 68099.8 2191.46   1
 -11   3   1 61776.1 2125.38   1
  11  -3  -1 62933.4 2232.35   1
  11   3   1 67106.3 1685.06   1
  11  -3  -3 86864.1 2851.00   1
 -11   3   3 82060.2 2456.23   1
 -11  -3  -3 80423.1 1479.69   1
  11   5   1 18547.0 788.617   1
 -11  -1  -5 19890.1 947.392   1
 -11   5  -1 19816.4 1360.78   1
  -1  11   5 18238.2 1096.85   1
   1  11   5 18825.4 988.568   1
 -11   5   1 20869.6 1519.01   1
  11  -1  -5 19831.1 1406.05   1
  11  -5  -1 19587.4 1281.09   1
  -5  11   3 16445.4 1180.10   1
  11  -3  -5 18132.7 1340.21   1
  -3  11   5 17547.1 1186.34   1
   3  11   5 19410.2 935.560   1
   3 -11  -5 17448.5 1167.55   1
 -11   3   5 16736.6 1214.26   1
  11  -5  -3 19150.1 1391.96   1
 -11  -3  -5 18379.3 718.509   1
 -11   5   3 19052.1 1368.58   1
 -11   5   5 56614.6 2243.65   1
  -5  11   5 58954.9 2490.53   1
   5 -11  -5 57893.5 2383.72   1
   5  11   5 56942.6 1196.41   1
  -1  11   7 35879.8 1513.59   1
   1  11   7 33432.6 1247.57   1
 -11   7   1 30762.5 1873.84   1
  11   7   1 38410.2 1142.66   1
  -1 -11  -7 30699.2 1276.59   1
   1 -11  -7 34297.9 1510.42   1
 -11  -3  -7 51949.1 1244.95   1
  -7  11   3 50610.9 2347.34   1
   3  11   7 51765.2 1281.80   1
   3 -11  -7 47333.6 1934.51   1
 -11   7   3 49420.5 2351.88   1
   5 -11  -7 1299.67 308.639   1
  -1 -11  -9 5607.35 579.114   1
   1 -11  -9 5073.58 634.119   1
  -1  11   9 6143.34 598.789   1
   3  -9 -11 60.7428 112.381   1
   3 -11  -9 118.426 117.514   1
  -3  11   9 2.67610 66.5179   1
  -3  -9 -11 6.47827 24.2756   1
  -1 -11 -11 61.6413 99.5109   1
   1 -11 -11 33.3702 68.2068   1
  -3 -11 -11 13651.0 862.899   1
 -12   0   0 5008.50 538.405   1
  12   0   0 4774.37 542.332   1
  12  -2   0 44.2304 78.1312   1
 -12  -2   0 31.7505 52.3910   1
 -12   0  -2 39.3770 42.4190   1
  12   0  -2 136.109 117.786   1
  12   2  -2 42.1334 49.1436   1
  12   2   2 260.526 114.251   1
 -12  -2  -2 200.947 80.7170   1
 -12   2  -2 172.685 75.8166   1
  12  -2  -2 282.089 119.045   1
 -12   2   2 158.172 126.102   1
   0  12   4 2242.80 388.483   1
  12   4   0 3075.18 382.296   1
 -12   0  -4 3075.05 433.138   1
  12   0  -4 3327.70 530.916   1
 -12   4   0 3675.43 649.180   1
  12  -4   0 3257.36 565.197   1
 -12   4   2 55318.9 2315.47   1
   2  12   4 55417.4 1816.85   1
  12  -2  -4 52173.7 2306.49   1
  -2  12   4 48932.0 2008.18   1
 -12   4  -2 52761.2 2230.55   1
  12   4   2 54101.0 1433.06   1
  12  -4  -2 54824.4 2326.22   1
 -12   2   4 48501.0 2016.28   1
 -12  -2  -4 53740.4 1482.09   1
  -4  12   4 88.7959 124.463   1
 -12   4   4 15.5649 23.3300   1
   4  12   4 71.6289 69.5533   1
 -12  -2  -6 1344.68 229.795   1
   2 -12  -6 582.538 223.463   1
  -2  12   6 1212.07 306.215   1
 -12   6   2 1603.33 405.496   1
  12   6   2 1514.29 230.876   1
   2  12   6 1581.26 287.930   1
   4  12   6 19040.1 816.851   1
   6  12   4 21356.1 810.680   1
  -6  12   4 19396.5 1551.23   1
   4 -12  -6 20528.7 1383.87   1
  -4  12   6 20324.6 1362.13   1
   0  12   8 733.594 204.308   1
   0 -12  -8 773.719 239.881   1
  -2  12   8 99762.8 2748.08   1
   2 -12  -8 98638.3 2846.32   1
   2  12   8 94148.1 2007.22   1
  12   8   2 96028.7 1511.31   1
  -4  12   8 106.815 68.6125   1
 -12  -4  -8 68.6039 39.8412   1
  -2  12  10 34.9452 45.0473   1
   2 -12 -10 41.1509 82.1800   1
  -2 -10 -12 10.3745 43.9829   1
   2 -10 -12 72.5262 57.9420   1
   0 -12 -12 963.862 291.913   1
  -2 -12 -12 59791.5 1935.50   1
  13   1  -1 46176.6 1836.28   1
 -13  -1   1 45716.2 1734.18   1
 -13   1   1 48477.9 1848.27   1
 -13  -1  -1 46975.3 1561.91   1
  13  -1   1 51041.6 1992.42   1
  13   1   1 49205.6 1716.34   1
  13  -1  -1 46650.2 1992.03   1
 -13   1  -1 47891.2 1838.22   1
 -13   1   3 35703.6 1718.43   1
 -13  -1  -3 34587.8 1357.22   1
 -13   3   1 36042.5 1855.65   1
  13  -1  -3 38930.2 2084.82   1
  13   3  -1 32387.1 1450.06   1
  13   1  -3 36495.7 1852.89   1
 -13   1  -3 35140.0 1650.71   1
  13  -3   1 33771.8 1707.10   1
 -13   3  -1 34295.5 1785.92   1
  13  -3  -1 32631.4 1731.16   1
  13   3   1 32919.2 1329.87   1
 -13   3  -3 74574.6 2701.64   1
 -13   3   3 69984.7 2498.02   1
 -13  -3  -3 72889.7 1637.73   1
   1  13   5 32210.1 1446.58   1
  -1  13   5 33995.9 1625.74   1
 -13   5  -1 32524.2 1881.28   1
 -13  -1  -5 37498.1 1445.66   1
 -13   5   1 36448.0 2031.84   1
  13   5   1 38280.8 1342.15   1
 -13  -3  -5 11906.8 628.147   1
   3  13   5 11602.5 794.918   1
  -3  13   5 12033.6 1057.72   1
   5  13   5 24952.8 1033.98   1
   1  13   7 11836.8 919.218   1
  13   7   1 10121.4 613.963   1
  -1  13   7 9590.34 871.160   1
   3  13   7 21802.0 973.141   1
   3 -13  -7 22012.8 1428.22   1
 -13  -3  -7 20943.5 851.641   1
  -3  13   7 21812.0 1420.14   1
  -1  13   9 6560.14 692.289   1
  -1 -13  -9 5055.51 570.567   1
   1 -13  -9 7115.01 801.517   1
   1  13   9 6222.05 584.190   1
  -3  13   9 203.816 127.816   1
  -1 -13 -11 355.694 170.307   1
   1 -13 -11 240.614 135.792   1
  14   0   0 44.0006 96.9884   1
 -14   0   0 9.20588 12.1964   1
  14   0  -2 13913.0 1143.08   1
 -14   0   2 14559.7 1104.80   1
 -14   2   0 13927.8 1081.68   1
 -14   0  -2 13434.1 918.901   1
  14   0   2 13164.6 948.275   1
  14  -2   0 13084.9 1060.24   1
  14   2   0 13232.6 926.428   1
  14   2  -2 7062.37 774.653   1
 -14   2   2 6719.39 753.358   1
  14   2   2 6839.06 643.318   1
 -14   2  -2 7599.93 801.669   1
 -14  -2  -2 7354.85 621.222   1
  14  -2  -2 6751.78 874.598   1
  14   4   2 1474.32 298.683   1
 -14  -2  -4 1513.27 262.951   1
 -14   4  -2 1238.92 371.794   1
 -14   2   4 1596.47 405.600   1
  14   6   0 65472.2 1856.14   1
   0  14   6 63698.0 2214.80   1
  -2  14   6 3713.83 584.517   1
   2  14   6 3258.24 461.664   1
 -14  -2  -6 3050.96 359.046   1
   4  14   6 41584.3 1387.06   1
   0  14   8 5.05788 26.8036   1
  -2  14   8 8410.29 862.347   1
   2  14   8 7734.37 634.288   1
   0  14  10 61670.4 2107.00   1
   0 -14 -10 60523.9 2248.96   1
 -15   1  -1 31469.0 1546.88   1
 -15   1   1 33029.0 1676.72   1
  15  -1   1 33128.6 1682.60   1
  15   1   1 34080.9 1604.71   1
 -15  -1  -1 33087.8 1512.46   1
  15  -1  -1 30667.1 1682.69   1
  15   1  -1 31352.5 1633.92   1
  15   3  -1 12227.7 963.927   1
  15   1  -3 14045.5 1274.79   1
 -15   1   3 13698.6 1207.13   1
 -15   3   1 13246.4 1173.33   1
 -15  -1  -3 13052.1 891.120   1
  15   3   1 13199.0 935.430   1
 -15   1  -3 10708.6 880.781   1
 -15   3  -1 12554.3 1103.56   1
 -15   3  -3 28278.7 1776.77   1
  15   5   1 29540.8 1266.96   1
 -15  -1  -5 29052.4 1298.33   1
  -1  15   7 704.821 265.517   1
   1  15   7 1609.94 361.817   1
  -1  15   9 12908.4 1071.58   1
   1  15   9 11889.4 873.293   1
  16   0   0 8913.86 900.919   1
 -16   0   0 8771.94 875.468   1
  16   2   0 27.2947 356.478   1
 -16   2   0 6.44735 74.4652   1
 -16   2  -2 95.1049 95.1899   1
  16   2   2 94.7008 103.746   1
 -16  -2  -2 319.489 143.037   1
  16   2  -2 187.046 140.077   1
 -16   0  -4 19580.8 1208.92   1
  16   4   0 19002.7 1135.99   1
 -16  -2  -4 13993.7 851.243   1
   0  16   8 3266.78 531.452   1
 -17  -1  -1 16144.1 1199.62   1
 -17   1  -1 14408.8 1106.47   1
  17   1   1 14808.3 1140.73   1
 -17   1  -3 10489.9 948.376   1
 -17  -1  -3 10979.8 877.911   1
  17   3   1 10049.0 878.872   1
  17   3  -1 10775.8 994.430   1
 -18   0  -2 3678.26 565.363   1
   0   0   0    0.00    0.00   0
TITL marseno_008 in Fd-3m
REM Fd-3m (#227 in standard setting)
CELL 0.41427  10.901074  10.901074  10.901074  90.0000  90.0000  90.0000
ZERR    6.00   0.000117   0.000117   0.000117   0.0000   0.0000   0.0000
LATT  4
SYMM -x+3/4,-y+1/4, z+1/2
SYMM -x+1/4, y+1/2,-z+3/4
SYMM  x+1/2,-y+3/4,-z+1/4
SYMM  z, x, y
SYMM  z+1/2,-x+3/4,-y+1/4
SYMM -z+3/4,-x+1/4, y+1/2
SYMM -z+1/4, x+1/2,-y+3/4
SYMM  y, z, x
SYMM -y+1/4, z+1/2,-x+3/4
SYMM  y+1/2,-z+3/4,-x+1/4
SYMM -y+3/4,-z+1/4, x+1/2
SYMM  y+3/4, x+1/4,-z+1/2
SYMM -y,-x,-z
SYMM  y+1/4,-x+1/2, z+3/4
SYMM -y+1/2, x+3/4, z+1/4
SYMM  x+3/4, z+1/4,-y+1/2
SYMM -x+1/2, z+3/4, y+1/4
SYMM -x,-z,-y
SYMM  x+1/4,-z+1/2, y+3/4
SYMM  z+3/4, y+1/4,-x+1/2
SYMM  z+1/4,-y+1/2, x+3/4
SYMM -z+1/2, y+3/4, x+1/4
SYMM -z,-y,-x
SFAC O As
UNIT 36.00 24.00
TREF
HKLF 4
END
;
_shelx_hkl_checksum              41067
_shelx_shelxl_version_number     2014/7
loop_
_space_group_symop_operation_xyz
'x, y, z'
'-x+3/4, -y+1/4, z+1/2'
'-x+1/4, y+1/2, -z+3/4'
'x+1/2, -y+3/4, -z+1/4'
'z, x, y'
'z+1/2, -x+3/4, -y+1/4'
'-z+3/4, -x+1/4, y+1/2'
'-z+1/4, x+1/2, -y+3/4'
'y, z, x'
'-y+1/4, z+1/2, -x+3/4'
'y+1/2, -z+3/4, -x+1/4'
'-y+3/4, -z+1/4, x+1/2'
'y+3/4, x+1/4, -z+1/2'
'-y, -x, -z'
'y+1/4, -x+1/2, z+3/4'
'-y+1/2, x+3/4, z+1/4'
'x+3/4, z+1/4, -y+1/2'
'-x+1/2, z+3/4, y+1/4'
'-x, -z, -y'
'x+1/4, -z+1/2, y+3/4'
'z+3/4, y+1/4, -x+1/2'
'z+1/4, -y+1/2, x+3/4'
'-z+1/2, y+3/4, x+1/4'
'-z, -y, -x'
'x, y+1/2, z+1/2'
'-x+3/4, -y+3/4, z+1'
'-x+1/4, y+1, -z+5/4'
'x+1/2, -y+5/4, -z+3/4'
'z, x+1/2, y+1/2'
'z+1/2, -x+5/4, -y+3/4'
'-z+3/4, -x+3/4, y+1'
'-z+1/4, x+1, -y+5/4'
'y, z+1/2, x+1/2'
'-y+1/4, z+1, -x+5/4'
'y+1/2, -z+5/4, -x+3/4'
'-y+3/4, -z+3/4, x+1'
'y+3/4, x+3/4, -z+1'
'-y, -x+1/2, -z+1/2'
'y+1/4, -x+1, z+5/4'
'-y+1/2, x+5/4, z+3/4'
'x+3/4, z+3/4, -y+1'
'-x+1/2, z+5/4, y+3/4'
'-x, -z+1/2, -y+1/2'
'x+1/4, -z+1, y+5/4'
'z+3/4, y+3/4, -x+1'
'z+1/4, -y+1, x+5/4'
'-z+1/2, y+5/4, x+3/4'
'-z, -y+1/2, -x+1/2'
'x+1/2, y, z+1/2'
'-x+5/4, -y+1/4, z+1'
'-x+3/4, y+1/2, -z+5/4'
'x+1, -y+3/4, -z+3/4'
'z+1/2, x, y+1/2'
'z+1, -x+3/4, -y+3/4'
'-z+5/4, -x+1/4, y+1'
'-z+3/4, x+1/2, -y+5/4'
'y+1/2, z, x+1/2'
'-y+3/4, z+1/2, -x+5/4'
'y+1, -z+3/4, -x+3/4'
'-y+5/4, -z+1/4, x+1'
'y+5/4, x+1/4, -z+1'
'-y+1/2, -x, -z+1/2'
'y+3/4, -x+1/2, z+5/4'
'-y+1, x+3/4, z+3/4'
'x+5/4, z+1/4, -y+1'
'-x+1, z+3/4, y+3/4'
'-x+1/2, -z, -y+1/2'
'x+3/4, -z+1/2, y+5/4'
'z+5/4, y+1/4, -x+1'
'z+3/4, -y+1/2, x+5/4'
'-z+1, y+3/4, x+3/4'
'-z+1/2, -y, -x+1/2'
'x+1/2, y+1/2, z'
'-x+5/4, -y+3/4, z+1/2'
'-x+3/4, y+1, -z+3/4'
'x+1, -y+5/4, -z+1/4'
'z+1/2, x+1/2, y'
'z+1, -x+5/4, -y+1/4'
'-z+5/4, -x+3/4, y+1/2'
'-z+3/4, x+1, -y+3/4'
'y+1/2, z+1/2, x'
'-y+3/4, z+1, -x+3/4'
'y+1, -z+5/4, -x+1/4'
'-y+5/4, -z+3/4, x+1/2'
'y+5/4, x+3/4, -z+1/2'
'-y+1/2, -x+1/2, -z'
'y+3/4, -x+1, z+3/4'
'-y+1, x+5/4, z+1/4'
'x+5/4, z+3/4, -y+1/2'
'-x+1, z+5/4, y+1/4'
'-x+1/2, -z+1/2, -y'
'x+3/4, -z+1, y+3/4'
'z+5/4, y+3/4, -x+1/2'
'z+3/4, -y+1, x+3/4'
'-z+1, y+5/4, x+1/4'
'-z+1/2, -y+1/2, -x'
'-x, -y, -z'
'x-3/4, y-1/4, -z-1/2'
'x-1/4, -y-1/2, z-3/4'
'-x-1/2, y-3/4, z-1/4'
'-z, -x, -y'
'-z-1/2, x-3/4, y-1/4'
'z-3/4, x-1/4, -y-1/2'
'z-1/4, -x-1/2, y-3/4'
'-y, -z, -x'
'y-1/4, -z-1/2, x-3/4'
'-y-1/2, z-3/4, x-1/4'
'y-3/4, z-1/4, -x-1/2'
'-y-3/4, -x-1/4, z-1/2'
'y, x, z'
'-y-1/4, x-1/2, -z-3/4'
'y-1/2, -x-3/4, -z-1/4'
'-x-3/4, -z-1/4, y-1/2'
'x-1/2, -z-3/4, -y-1/4'
'x, z, y'
'-x-1/4, z-1/2, -y-3/4'
'-z-3/4, -y-1/4, x-1/2'
'-z-1/4, y-1/2, -x-3/4'
'z-1/2, -y-3/4, -x-1/4'
'z, y, x'
'-x, -y+1/2, -z+1/2'
'x-3/4, y+1/4, -z'
'x-1/4, -y, z-1/4'
'-x-1/2, y-1/4, z+1/4'
'-z, -x+1/2, -y+1/2'
'-z-1/2, x-1/4, y+1/4'
'z-3/4, x+1/4, -y'
'z-1/4, -x, y-1/4'
'-y, -z+1/2, -x+1/2'
'y-1/4, -z, x-1/4'
'-y-1/2, z-1/4, x+1/4'
'y-3/4, z+1/4, -x'
'-y-3/4, -x+1/4, z'
'y, x+1/2, z+1/2'
'-y-1/4, x, -z-1/4'
'y-1/2, -x-1/4, -z+1/4'
'-x-3/4, -z+1/4, y'
'x-1/2, -z-1/4, -y+1/4'
'x, z+1/2, y+1/2'
'-x-1/4, z, -y-1/4'
'-z-3/4, -y+1/4, x'
'-z-1/4, y, -x-1/4'
'z-1/2, -y-1/4, -x+1/4'
'z, y+1/2, x+1/2'
'-x+1/2, -y, -z+1/2'
'x-1/4, y-1/4, -z'
'x+1/4, -y-1/2, z-1/4'
'-x, y-3/4, z+1/4'
'-z+1/2, -x, -y+1/2'
'-z, x-3/4, y+1/4'
'z-1/4, x-1/4, -y'
'z+1/4, -x-1/2, y-1/4'
'-y+1/2, -z, -x+1/2'
'y+1/4, -z-1/2, x-1/4'
'-y, z-3/4, x+1/4'
'y-1/4, z-1/4, -x'
'-y-1/4, -x-1/4, z'
'y+1/2, x, z+1/2'
'-y+1/4, x-1/2, -z-1/4'
'y, -x-3/4, -z+1/4'
'-x-1/4, -z-1/4, y'
'x, -z-3/4, -y+1/4'
'x+1/2, z, y+1/2'
'-x+1/4, z-1/2, -y-1/4'
'-z-1/4, -y-1/4, x'
'-z+1/4, y-1/2, -x-1/4'
'z, -y-3/4, -x+1/4'
'z+1/2, y, x+1/2'
'-x+1/2, -y+1/2, -z'
'x-1/4, y+1/4, -z-1/2'
'x+1/4, -y, z-3/4'
'-x, y-1/4, z-1/4'
'-z+1/2, -x+1/2, -y'
'-z, x-1/4, y-1/4'
'z-1/4, x+1/4, -y-1/2'
'z+1/4, -x, y-3/4'
'-y+1/2, -z+1/2, -x'
'y+1/4, -z, x-3/4'
'-y, z-1/4, x-1/4'
'y-1/4, z+1/4, -x-1/2'
'-y-1/4, -x+1/4, z-1/2'
'y+1/2, x+1/2, z'
'-y+1/4, x, -z-3/4'
'y, -x-1/4, -z-1/4'
'-x-1/4, -z+1/4, y-1/2'
'x, -z-1/4, -y-1/4'
'x+1/2, z+1/2, y'
'-x+1/4, z, -y-3/4'
'-z-1/4, -y+1/4, x-1/2'
'-z+1/4, y, -x-3/4'
'z, -y-1/4, -x-1/4'
'z+1/2, y+1/2, x'
loop_
_atom_site_label
_atom_site_type_symbol
_atom_site_fract_x
_atom_site_fract_y
_atom_site_fract_z
_atom_site_U_iso_or_equiv
_atom_site_adp_type
_atom_site_occupancy
_atom_site_site_symmetry_order
_atom_site_calc_flag
_atom_site_refinement_flags_posn
_atom_site_refinement_flags_adp
_atom_site_refinement_flags_occupancy
As1 As 0.27031(3) 0.27031(3) 0.27031(3) 0.0146(3) Uani 1 6 d S T P
O1 O 0.3750 0.3750 0.1984(3) 0.0164(7) Uani 1 4 d S T P
loop_
_atom_site_aniso_label
_atom_site_aniso_U_11
_atom_site_aniso_U_22
_atom_site_aniso_U_33
_atom_site_aniso_U_23
_atom_site_aniso_U_13
_atom_site_aniso_U_12
As1 0.0146(3) 0.0146(3) 0.0146(3) -0.00133(10) -0.00133(10) -0.00133(10)
O1 0.0194(10) 0.0194(10) 0.0104(13) 0.000 0.000 -0.0018(14)
loop_
_atom_type_symbol
_atom_type_description
_atom_type_scat_dispersion_real
_atom_type_scat_dispersion_imag
_atom_type_scat_source
O O 0.0020 0.0020 'International Tables Vol C Tables 4.2.6.8 and 6.1.1.4'
As As 0.3110 0.7990 'International Tables Vol C Tables 4.2.6.8 and 6.1.1.4'
loop_
_geom_angle_atom_site_label_1
_geom_angle_atom_site_label_2
_geom_angle_atom_site_label_3
_geom_angle
_geom_angle_site_symmetry_1
_geom_angle_site_symmetry_3
O1 As1 O1 98.68(12) 9 5
O1 As1 O1 98.68(12) 5 .
O1 As1 O1 98.68(12) 9 .
As1 O1 As1 128.21(19) . 26_554
loop_
_geom_bond_atom_site_label_1
_geom_bond_atom_site_label_2
_geom_bond_distance
_geom_bond_site_symmetry_2
As1 O1 1.7941(15) 9
As1 O1 1.7941(15) .
As1 O1 1.7941(15) 5
O1 As1 1.7941(15) 26_554
