#------------------------------------------------------------------------------
#$Date: 2015-09-04 08:12:49 +0300 (Fri, 04 Sep 2015) $
#$Revision: 153928 $
#$URL: svn://www.crystallography.net/cod/cif/4/51/35/4513578.cif $
#------------------------------------------------------------------------------
#
# This file is available in the Crystallography Open Database (COD),
# http://www.crystallography.net/
#
# All data on this site have been placed in the public domain by the
# contributors.
#
data_4513578
loop_
_publ_author_name
'Gu\'nka, Piotr A.'
'Dziubek, Kamil F.'
'G\/ladysiak, Andrzej'
'Dranka, Maciej'
'Piechota, Jacek'
'Hanfland, Michael'
'Katrusiak, Andrzej'
'Zachara, Janusz'
_publ_section_title
;
 Compressed Arsenolite As4O6and Its Helium Clathrate As4O6&#x00B7;2He
;
_journal_issue                   8
_journal_name_full               'Crystal Growth &amp; Design'
_journal_page_first              3740
_journal_paper_doi               10.1021/acs.cgd.5b00390
_journal_volume                  15
_journal_year                    2015
_chemical_formula_moiety         'As4 O6'
_chemical_formula_sum            'As4 O6'
_chemical_formula_weight         395.68
_chemical_name_common            arsenolite
_space_group_crystal_system      cubic
_space_group_IT_number           227
_space_group_name_Hall           '-F 4vw 2vw 3'
_space_group_name_H-M_alt        'F d -3 m'
_symmetry_space_group_name_Hall  '-F 4vw 2vw 3'
_symmetry_space_group_name_H-M   'F d -3 m :2'
_atom_sites_solution_primary     direct
_audit_creation_date             2014-10-15
_audit_creation_method
;
Olex2 1.2-beta
(compiled 2014.09.19 svn.r3010 for OlexSys, GUI svn.r4874)
;
_cell_angle_alpha                90
_cell_angle_beta                 90
_cell_angle_gamma                90
_cell_formula_units_Z            8
_cell_length_a                   9.8525(3)
_cell_length_b                   9.8525(3)
_cell_length_c                   9.8525(3)
_cell_measurement_pressure       1.516e7(7)
_cell_measurement_reflns_used    308
_cell_measurement_temperature    293(2)
_cell_measurement_theta_max      19.6600
_cell_measurement_theta_min      2.0740
_cell_volume                     956.40(5)
_computing_cell_refinement
;
CrysAlisPro, Agilent Technologies,
Version 1.171.37.34 (release 22-05-2014 CrysAlis171 .NET)
(compiled May 22 2014,16:03:01)
;
_computing_data_collection
;
CrysAlisPro, Agilent Technologies,
Version 1.171.37.34 (release 22-05-2014 CrysAlis171 .NET)
(compiled May 22 2014,16:03:01)
;
_computing_data_reduction
;
CrysAlisPro, Agilent Technologies,
Version 1.171.37.34 (release 22-05-2014 CrysAlis171 .NET)
(compiled May 22 2014,16:03:01)
;
_computing_molecular_graphics    'Olex2 (Dolomanov et al., 2009)'
_computing_publication_material  'Olex2 (Dolomanov et al., 2009)'
_computing_structure_refinement  'ShelXL (Sheldrick, 2008)'
_computing_structure_solution    'ShelXT (Sheldrick, 2008)'
_diffrn_ambient_environment      He
_diffrn_ambient_pressure         1.516e7(7)
_diffrn_ambient_temperature      293(2)
_diffrn_detector                 'CCD plate'
_diffrn_measured_fraction_theta_full 0.817
_diffrn_measured_fraction_theta_max 0.651
_diffrn_measurement_details
;
  1 phi    148.00  212.00   0.5000    1.0000
omega____ theta____ kappa____ phi______ frames
   0.0000    0.0000    0.0000     -     128
;
_diffrn_measurement_device       'abstract diffractometer'
_diffrn_measurement_device_type
'MAR-CrysAlisPro-abstract goniometer: imported MAR images'
_diffrn_measurement_method       '\p scans'
_diffrn_orient_matrix_UB_11      0.0006747000
_diffrn_orient_matrix_UB_12      0.0340956000
_diffrn_orient_matrix_UB_13      -0.0246594000
_diffrn_orient_matrix_UB_21      0.0306850000
_diffrn_orient_matrix_UB_22      0.0164197000
_diffrn_orient_matrix_UB_23      0.0235525000
_diffrn_orient_matrix_UB_31      0.0287373000
_diffrn_orient_matrix_UB_32      -0.0183432000
_diffrn_orient_matrix_UB_33      -0.0245905000
_diffrn_radiation_monochromator  synchrotron
_diffrn_radiation_probe          x-ray
_diffrn_radiation_wavelength     0.41427
_diffrn_reflns_av_R_equivalents  0.0242
_diffrn_reflns_av_unetI/netI     0.0181
_diffrn_reflns_laue_measured_fraction_full 0.817
_diffrn_reflns_laue_measured_fraction_max 0.651
_diffrn_reflns_limit_h_max       16
_diffrn_reflns_limit_h_min       -15
_diffrn_reflns_limit_k_max       9
_diffrn_reflns_limit_k_min       -11
_diffrn_reflns_limit_l_max       13
_diffrn_reflns_limit_l_min       -12
_diffrn_reflns_number            437
_diffrn_reflns_point_group_measured_fraction_full 0.817
_diffrn_reflns_point_group_measured_fraction_max 0.651
_diffrn_reflns_theta_full        14.392
_diffrn_reflns_theta_max         19.456
_diffrn_reflns_theta_min         2.087
_diffrn_source                   synchrotron
_exptl_absorpt_coefficient_mu    6.350
_exptl_absorpt_correction_T_max  1.00000
_exptl_absorpt_correction_T_min  0.48292
_exptl_absorpt_correction_type   multi-scan
_exptl_absorpt_process_details
;
CrysAlisPro, Agilent Technologies,
Version 1.171.37.34 (release 22-05-2014 CrysAlis171 .NET)
(compiled May 22 2014,16:03:01)
Empirical absorption correction using spherical harmonics,
 implemented in SCALE3 ABSPACK scaling algorithm.
;
_exptl_crystal_density_diffrn    5.496
_exptl_crystal_description       block
_exptl_crystal_F_000             1440
_exptl_crystal_size_max          0.065
_exptl_crystal_size_mid          0.04
_exptl_crystal_size_min          0.02
_refine_diff_density_max         0.542
_refine_diff_density_min         -0.611
_refine_diff_density_rms         0.145
_refine_ls_extinction_method     none
_refine_ls_goodness_of_fit_ref   1.138
_refine_ls_hydrogen_treatment    undef
_refine_ls_matrix_type           full
_refine_ls_number_parameters     8
_refine_ls_number_reflns         84
_refine_ls_number_restraints     0
_refine_ls_restrained_S_all      1.138
_refine_ls_R_factor_all          0.0342
_refine_ls_R_factor_gt           0.0330
_refine_ls_shift/su_max          0.000
_refine_ls_shift/su_mean         0.000
_refine_ls_structure_factor_coef Fsqd
_refine_ls_weighting_details
'w=1/[\s^2^(Fo^2^)+(0.0300P)^2^+27.3450P] where P=(Fo^2^+2Fc^2^)/3'
_refine_ls_weighting_scheme      calc
_refine_ls_wR_factor_gt          0.0760
_refine_ls_wR_factor_ref         0.0766
_reflns_Friedel_coverage         0.000
_reflns_number_gt                80
_reflns_number_total             84
_reflns_threshold_expression     'I > 2\s(I)'
_cod_data_source_file            cg5b00390_si_002.cif
_cod_data_source_block           marseno_018
_cod_original_cell_volume        956.39(10)
_cod_database_code               4513578
_shelx_space_group_comment
;
The symmetry employed for this shelxl refinement is uniquely defined
by the following loop, which should always be used as a source of
symmetry information in preference to the above space-group names.
They are only intended as comments.
;
_olex2_refinement_description
;
;
_shelx_res_file
;
    marseno_018.res created by SHELXL-2014/7

TITL marseno_018_a.res in Fd-3m
CELL 0.41427 9.852461 9.852461 9.852461 90 90 90
ZERR 8 0.000345 0.000345 0.000345 0 0 0
LATT 4
SYMM 0.75-X,0.25-Y,0.5+Z
SYMM 0.25-X,0.5+Y,0.75-Z
SYMM 0.5+X,0.75-Y,0.25-Z
SYMM +Z,+X,+Y
SYMM 0.5+Z,0.75-X,0.25-Y
SYMM 0.75-Z,0.25-X,0.5+Y
SYMM 0.25-Z,0.5+X,0.75-Y
SYMM +Y,+Z,+X
SYMM 0.25-Y,0.5+Z,0.75-X
SYMM 0.5+Y,0.75-Z,0.25-X
SYMM 0.75-Y,0.25-Z,0.5+X
SYMM 0.75+Y,0.25+X,0.5-Z
SYMM -Y,-X,-Z
SYMM 0.25+Y,0.5-X,0.75+Z
SYMM 0.5-Y,0.75+X,0.25+Z
SYMM 0.75+X,0.25+Z,0.5-Y
SYMM 0.5-X,0.75+Z,0.25+Y
SYMM -X,-Z,-Y
SYMM 0.25+X,0.5-Z,0.75+Y
SYMM 0.75+Z,0.25+Y,0.5-X
SYMM 0.25+Z,0.5-Y,0.75+X
SYMM 0.5-Z,0.75+Y,0.25+X
SYMM -Z,-Y,-X

SFAC O As
DISP As 0.311 0.799 1882.762
DISP O 0.002 0.002 10.067
UNIT 48 32

L.S. 10
PLAN  20
REM Old TITL marseno_018 in Fd-3m #227
BOND $H
LIST 6
fmap 2
ACTA
OMIT 0 0 16
REM <HKL>E:/X-Ray_Data_Backup/ESRF_id09_2014_10/data/arsenolite/arseno_018/str
REM uct/olex2_marseno_018/marseno_018.hkl</HKL>

WGHT    0.030000   27.344999
FVAR       1.61505
AS1   2    0.257548    0.257548    0.257548    10.16667    0.01001    0.01001 =
         0.01001   -0.00047   -0.00047   -0.00047
O1    1    0.375000    0.375000    0.183126    10.25000    0.01263    0.01263 =
         0.01043    0.00000    0.00000   -0.00024
HKLF 4

REM  marseno_018_a.res in Fd-3m
REM R1 =  0.0330 for      80 Fo > 4sig(Fo)  and  0.0342 for all      84 data
REM      8 parameters refined using      0 restraints

END

WGHT      0.0299     27.4449

REM Highest difference peak  0.542,  deepest hole -0.611,  1-sigma level  0.145
Q1    1   0.1965  0.1965  0.1965  10.16667  0.05    0.54
Q2    1   0.2691  0.2691  0.3367  10.50000  0.05    0.48
Q3    1   0.2566  0.2566  0.1928  10.50000  0.05    0.46
Q4    1   0.3468  0.4032  0.2541  10.50000  0.05    0.44
Q5    1   0.2695  0.2695  0.1804  10.50000  0.05    0.43
Q6    1   0.1988  0.2388  0.2860  11.00000  0.05    0.42
Q7    1   0.4540  0.3686  0.1932  11.00000  0.05    0.39
Q8    1   0.3939  0.4446  0.2044  11.00000  0.05    0.36
Q9    1   0.2485  0.4158  0.2214  11.00000  0.05    0.34
Q10   1   0.2151  0.1250  0.1250  10.25000  0.05    0.33
Q11   1   0.4211  0.2460  0.2460  10.50000  0.05    0.33
Q12   1   0.1507  0.2299  0.1507  10.50000  0.05    0.31
Q13   1   0.3054  0.4446  0.1326  10.50000  0.05    0.30
Q14   1   0.3936  0.3936  0.1441  10.50000  0.05    0.28
Q15   1   0.2843  0.4657  0.2843  10.16667  0.05    0.27
Q16   1   0.2780  0.2780  0.1027  10.50000  0.05    0.25
Q17   1   0.4134  0.4134  0.0433  10.50000  0.05    0.23
Q18   1   0.2862  0.1377  0.1770  11.00000  0.05    0.23
Q19   1   0.4101  0.3399  0.2835  10.50000  0.05    0.22
Q20   1   0.4206  0.3037  0.1095  11.00000  0.05    0.22
;
_shelx_res_checksum              21388
_shelx_hkl_file
;
   1   1   1 74431.5 917.906   1
  -1  -1  -1 75420.9 946.326   1
  -2   0   0 1.02273 11.2571   1
   2   0   0 6.45722 8.48285   1
  -2   0  -2 4872.71 316.138   1
   0  -2  -2 4509.02 238.052   1
   2   0   2 5355.85 327.485   1
   3  -1  -1 148.618 40.5811   1
  -1  -1  -3 139.096 46.4803   1
  -3  -1  -1 216.864 68.8643   1
   3   1   1 57.2440 39.4452   1
   3  -1   1 26.0213 42.5710   1
  -3   1   1 95.1015 30.2907   1
   1   1   3 284.881 71.8504   1
  -1  -3  -3 81084.0 1416.34   1
   1  -3  -3 75783.0 1106.07   1
   3   3   1 78020.3 1461.61   1
  -1   3   3 77754.4 1069.51   1
   3   1   3 79103.6 1549.95   1
  -3  -3  -1 78700.6 1436.63   1
   1   3   3 79691.7 1305.52   1
  -3  -1  -3 81010.8 1536.85   1
   3   3   3 1076.10 177.288   1
  -3  -3  -3 802.101 164.579   1
   3  -3  -3 950.972 74.0887   1
  -4  -2   0 3.52984 18.6642   1
   4   2   0 44.1590 25.7026   1
   0   2   4 3.81403 22.4568   1
  -4   0   2 16.3964 8.71336   1
   2   2   4 32573.6 1003.09   1
  -2   2   4 33099.1 634.285   1
   4   2   2 34580.8 1048.94   1
   4  -2  -2 33098.2 493.087   1
  -4  -2  -2 33965.3 1050.68   1
  -2  -2  -4 33884.5 1054.83   1
  -4  -2  -4 1617.46 265.296   1
   4   4   2 1534.61 229.601   1
   2   4   4 1551.02 214.707   1
   4   2   4 1411.99 244.200   1
  -2  -4  -4 1581.80 227.789   1
  -4  -4  -2 1119.28 220.259   1
   2  -4  -4 1535.63 163.122   1
  -5   1  -1 3088.90 283.230   1
   5   1   1 3424.80 319.317   1
  -5  -1  -1 2991.91 316.255   1
   5  -1   1 3112.25 322.305   1
   5  -1  -1 3374.39 254.990   1
  -5   1   1 2810.57 229.082   1
   5   1  -1 2841.71 251.967   1
  -5  -1   1 3208.58 272.575   1
   3   1   5 11272.7 716.382   1
  -1   3   5 11647.2 517.531   1
  -5  -1  -3 10044.0 675.831   1
  -5   1   3 10556.7 359.576   1
  -1  -3  -5 11173.9 633.832   1
  -5  -3  -1 10899.5 657.934   1
   5   1   3 12208.5 709.069   1
   1   3   5 11315.7 613.956   1
   5   3   1 10054.0 570.111   1
  -3  -1  -5 11028.4 694.936   1
   1  -3  -5 11065.0 498.011   1
  -3  -5  -3 617.366 148.962   1
  -3   3   5 754.034 87.9642   1
  -5  -3  -3 926.746 197.127   1
  -3  -3  -5 724.995 171.561   1
   5   3   3 1003.72 205.293   1
   3   5   3 679.775 167.715   1
   5  -3  -3 517.665 40.2749   1
   3   3   5 704.214 180.361   1
   5   1   5 142537. 2899.85   1
  -1   5   5 141468. 2049.43   1
  -1  -5  -5 142071. 2341.67   1
  -5  -1  -5 137464. 2665.29   1
   1   5   5 138279. 2254.66   1
   1  -5  -5 144305. 2052.46   1
  -5  -3  -5 9849.84 753.921   1
  -5  -5  -3 8463.49 692.497   1
   3  -5  -5 9255.00 426.694   1
   5   5   3 8318.72 626.829   1
   3   5   5 9716.16 651.590   1
  -3  -5  -5 9001.17 660.320   1
   5   3   5 9066.19 711.930   1
  -5  -5  -5 26115.5 1245.12   1
   5   5   5 25329.1 1180.06   1
   6   0   0 2.17535 11.5023   1
  -6  -2   0 2433.44 307.586   1
   6  -2   0 2292.73 261.996   1
   6   2   0 2299.14 270.085   1
   0   2   6 2121.73 277.898   1
   6   0   2 2718.38 345.035   1
  -6   0  -2 2276.35 288.129   1
  -6   0   2 2747.78 267.080   1
   0   4   6 8.74660 47.1824   1
   6   0   4 66.9258 67.8209   1
  -6   0  -4 1.81194 47.9034   1
   0  -6  -4 28.4718 55.9245   1
  -2  -6  -4 125.236 47.9518   1
  -6   2   4 219.310 35.4157   1
   4   2   6 349.411 144.062   1
   2   4   6 83.8915 84.7741   1
  -2   4   6 350.842 79.6184   1
   6   2   4 349.867 144.008   1
   6   4   2 216.497 99.6337   1
  -6  -2  -4 109.784 100.500   1
   2  -4  -6 290.446 75.4388   1
  -4  -2  -6 239.417 111.864   1
  -2  -4  -6 496.326 140.780   1
  -6  -4  -2 148.615 101.552   1
   6   4   4 679.203 183.882   1
   4   6   4 804.172 226.035   1
  -6  -4  -4 538.103 170.834   1
  -4  -4  -6 781.992 224.674   1
  -4  -6  -4 426.963 156.639   1
   4   4   6 691.677 170.418   1
   0  -6  -6 38555.4 1285.44   1
   0   6   6 38525.4 1242.50   1
   4  -6  -6 18.2479 31.4891   1
  -6  -4  -6 59.2544 455.167   1
   6   6   4 36.0690 61.9370   1
  -7   1   1 11286.0 562.647   1
  -7   1  -1 11747.4 664.530   1
   7   1   1 11280.3 672.680   1
   7  -1  -1 11998.1 574.827   1
   7  -1   1 12190.8 705.356   1
   7   1  -1 11181.1 592.369   1
  -7  -1   1 11581.8 663.294   1
  -7  -1  -1 12471.7 752.416   1
  -7  -1  -3 19627.6 1018.26   1
  -7   1   3 19437.5 665.799   1
  -1  -3  -7 19548.0 915.844   1
   7  -1   3 21439.5 1127.80   1
   7   3   1 18682.4 928.906   1
   1   3   7 19636.4 942.596   1
  -7   1  -3 21400.7 1057.68   1
  -1   3   7 20084.4 829.548   1
   7  -3  -1 19490.9 753.552   1
   7   1   3 21057.6 1086.50   1
  -7  -3  -1 21661.5 1103.91   1
  -3  -3  -7 131677. 2681.80   1
   3   3   7 131440. 2725.69   1
   7   3   3 130523. 2644.31   1
  -3   3   7 133398. 1748.46   1
  -7  -3  -3 132572. 2743.91   1
   7  -3  -3 132200. 1267.14   1
   1  -7  -5 2547.38 306.810   1
  -7   1   5 2412.59 200.533   1
  -1  -7  -5 2511.34 356.234   1
  -1  -5  -7 2801.62 371.809   1
   7   1   5 2830.88 462.057   1
  -1   5   7 3034.93 309.317   1
   1  -5  -7 2997.33 320.107   1
  -7  -1  -5 2435.72 390.264   1
   1   5   7 2693.93 347.614   1
  -5  -3  -7 10669.9 852.015   1
   7   5   3 9848.16 769.900   1
   3  -5  -7 11315.6 537.534   1
   7  -5  -3 8666.76 395.685   1
   3   5   7 10645.7 762.335   1
  -3  -5  -7 11467.2 867.589   1
  -7  -3  -5 11132.8 890.921   1
  -3   5   7 10788.8 483.725   1
  -5   3   7 8889.74 314.032   1
   5   3   7 10648.9 861.655   1
  -7  -5  -3 10215.2 857.474   1
  -3  -7  -5 10508.9 829.468   1
   7   3   5 10403.0 865.455   1
   5   5   7 6031.12 641.856   1
   7   5   5 6650.80 674.428   1
  -5  -5  -7 7666.94 759.345   1
   5   7   5 7186.74 732.193   1
  -5  -7  -5 6308.17 688.309   1
  -7  -5  -5 6378.09 661.401   1
   7   1   7 51903.8 2252.57   1
   1  -7  -7 55572.6 1587.36   1
  -1  -7  -7 55779.1 1793.20   1
   1   7   7 57553.7 1766.29   1
  -7  -1  -7 52019.6 2101.37   1
  -7  -3  -7 40364.4 1821.19   1
   3  -7  -7 40593.0 1197.15   1
   3   7   7 40013.4 1581.01   1
  -3  -7  -7 41757.1 1689.32   1
   7   3   7 35825.3 1782.80   1
   7   5   7 12957.8 1008.42   1
   5  -7  -7 10926.1 480.283   1
   7   7   5 12345.5 1011.30   1
  -7  -5  -7 12697.7 1064.50   1
   5   7   7 13530.0 1003.12   1
  -5  -7  -7 11313.4 944.287   1
  -7  -7  -5 11125.6 1010.55   1
   7   7   7 82092.6 2636.88   1
   8  -2  -2 18586.6 659.336   1
  -8   2   2 19341.8 704.545   1
   2   2   8 19984.2 1185.08   1
  -8  -2  -2 21876.9 1149.24   1
   8  -2   2 19204.6 1074.22   1
   8   2   2 18623.5 977.861   1
  -8  -2   2 19538.9 909.472   1
  -8  -2  -4 2202.89 385.824   1
   8   4   2 2343.58 357.212   1
   8   2   4 2326.70 421.159   1
  -8   2   4 2055.20 188.723   1
   4   2   8 2207.85 445.626   1
   8  -4  -2 2679.96 258.815   1
   2   4   8 2682.05 393.001   1
  -2   4   8 2413.75 290.508   1
  -8  -4  -2 2675.34 427.986   1
  -2  -4  -8 2347.28 356.795   1
   0  -8  -6 40.9212 60.2598   1
   0  -6  -8 27.6094 30.7765   1
  -2   6   8 4587.39 388.296   1
   2  -6  -8 4840.31 423.259   1
   2   6   8 4294.75 490.078   1
  -2  -6  -8 4927.91 563.781   1
  -8   2   6 2995.01 190.719   1
  -8  -2  -6 4248.23 583.682   1
   6   2   8 4545.10 654.227   1
   8   2   6 3975.64 585.471   1
  -2  -8  -6 4280.10 547.276   1
  -6  -2  -8 4864.57 621.999   1
   6   4   8 1633.09 363.495   1
  -8  -4  -6 1285.24 334.303   1
   4  -8  -6 172.377 79.4788   1
  -4  -6  -8 2317.49 425.884   1
   8   4   6 1300.99 312.629   1
   8   6   4 1638.68 332.723   1
  -8  -6  -4 1510.25 359.958   1
   8  -6  -4 998.671 108.554   1
   4   6   8 1253.37 292.859   1
  -4  -8  -6 1469.79 349.776   1
  -6  -4  -8 1913.60 392.092   1
  -6  -6  -8 2058.97 438.626   1
   8   6   6 1618.75 385.628   1
  -6  -8  -6 1689.09 400.606   1
   6   8   6 1656.37 394.593   1
   6  -8  -6 1349.53 149.555   1
   6   6   8 1906.62 397.023   1
   0  -8  -8 229069. 3686.56   1
   2  -8  -8 5552.11 527.539   1
  -2  -8  -8 6046.24 659.745   1
   8   2   8 5427.97 825.527   1
   2   8   8 5838.07 651.260   1
   4  -8  -8 276502. 3116.19   1
  -4  -8  -8 275832. 4908.46   1
   8   4   8 276722. 5427.57   1
   9  -1  -1 49596.7 1332.87   1
  -9   1  -1 52141.0 1625.56   1
  -9   1   1 48920.0 1391.11   1
   9   1   1 51914.0 1639.33   1
  -9  -1  -1 50023.7 1724.03   1
  -9  -1   1 52447.0 1624.10   1
   9   1  -1 48133.3 1454.16   1
   9  -1   1 50197.8 1624.08   1
  -9  -3   1 22400.4 1185.96   1
  -9  -1  -3 22769.8 1243.42   1
  -9   1  -3 20501.3 1161.39   1
  -9   1   3 21490.6 861.938   1
  -1   3   9 20803.0 1070.17   1
   9  -3   1 22024.7 1161.93   1
   1   3   9 21881.5 1223.24   1
   9   3   1 22303.5 1133.62   1
   9  -1   3 22012.0 1222.95   1
  -9  -3  -1 23072.7 1280.58   1
   9  -3  -1 20023.5 859.865   1
   9   1   3 24187.6 1350.22   1
  -9  -1   3 22403.4 1021.42   1
  -3   3   9 70.3507 75.5341   1
  -9  -3  -3 186.491 116.101   1
   3   3   9 37.8263 47.3823   1
   9  -3  -3 15.8734 14.2747   1
  -1   5   9 39146.0 1349.15   1
  -1  -5  -9 37625.3 1472.44   1
  -9  -1  -5 37863.8 1730.32   1
  -9   1   5 34686.1 986.981   1
   9   1   5 35564.6 1766.60   1
   1   5   9 40927.6 1618.52   1
   9   3   5 24003.1 1428.35   1
  -3   5   9 25974.0 901.329   1
  -3  -5  -9 23374.2 1314.27   1
  -9  -3  -5 21585.3 1398.77   1
  -5   3   9 24892.7 899.550   1
   9   5   3 23269.0 1314.69   1
  -5  -3  -9 21571.4 1362.91   1
   5   3   9 23801.2 1500.11   1
  -9  -5  -3 26476.3 1561.87   1
   9  -5  -3 22057.7 740.462   1
   3   5   9 27279.0 1460.34   1
  -5  -5  -9 91858.7 2865.69   1
   9   5   5 87399.0 2709.37   1
  -9  -5  -5 89626.2 2906.25   1
   5   5   9 89946.5 2835.79   1
  -1  -7  -9 932.505 232.243   1
  -1   7   9 934.124 196.995   1
   9   1   7 321.229 189.684   1
   1   7   9 877.827 231.777   1
  -9  -1  -7 355.815 204.371   1
  -1  -9  -7 198.557 122.868   1
   1  -7  -9 779.733 196.193   1
  -3  -7  -9 819.111 246.405   1
   9   3   7 464.561 230.942   1
   3   7   9 1268.78 295.029   1
   7   3   9 771.078 303.032   1
  -7   3   9 651.682 91.2893   1
  -3  -9  -7 580.437 277.102   1
   3  -7  -9 906.307 196.232   1
   5   7   9 3786.61 540.026   1
   5  -9  -7 2560.74 284.227   1
   1  -9  -9 43357.9 1661.84   1
  -1  -9  -9 44207.0 1860.73   1
   3  -9  -9 32192.1 1299.56   1
  -3  -9  -9 32295.6 1780.86   1
   3   9   9 32915.0 1736.28   1
  10   0   0 75.3564 49.6000   1
 -10   0  -2 5722.87 599.231   1
 -10   0   2 6523.77 580.614   1
  10   2   0 6765.64 624.807   1
 -10  -2   0 6365.40 650.666   1
  10  -2   0 6448.63 585.357   1
  10   0   2 6692.34 693.546   1
  10  -4   0 69.2937 96.7923   1
   0   4  10 52.7447 46.4816   1
  10  -4  -2 64.2580 69.7147   1
  10   2   4 48.8833 70.4160   1
  10   4   2 122.845 93.7332   1
  -2   4  10 287.479 104.633   1
 -10   2   4 83.0712 52.2951   1
 -10  -2  -4 62.4237 99.4063   1
 -10  -4  -4 29.3491 38.5560   1
  10   4   4 29.0401 88.2081   1
  -4   4  10 188.051 56.9404   1
   4   4  10 163.090 112.160   1
  -4  -4 -10 74.4013 64.8812   1
   0   6  10 123.040 62.8147   1
   0  -6 -10 284.047 99.1524   1
   2   6  10 233215. 4049.96   1
  -2  -6 -10 240565. 4194.82   1
 -10   2   6 237729. 2554.56   1
  -2   6  10 241543. 3186.77   1
  10   2   6 235484. 5196.72   1
  -6   4  10 11787.8 484.795   1
   4   6  10 13531.0 1080.33   1
  -4  -6 -10 13249.6 1097.11   1
   6   4  10 11171.2 1168.20   1
   0  -8 -10 78.3788 22.4318   1
   2 -10  -8 2.02487 71.8219   1
  -2 -10  -8 6.91886 109.751   1
   4   8  10 465.442 211.106   1
   0 -10 -10 25614.5 1425.36   1
   2 -10 -10 100909. 2604.51   1
  11  -1   1 30746.7 1388.26   1
 -11   1  -1 31188.5 1417.81   1
 -11   1   1 32255.6 1295.23   1
  11   1   1 29503.4 1366.31   1
 -11  -1  -1 30671.2 1529.90   1
  11  -1  -1 32906.5 1241.20   1
 -11  -1   1 31132.9 1455.03   1
  11   1  -1 30836.2 1334.45   1
  11  -3  -1 30882.8 1231.84   1
  11   1   3 29595.1 1567.02   1
 -11   1  -3 30291.3 1569.60   1
 -11  -1  -3 28577.8 1570.46   1
 -11   1   3 26437.6 1087.83   1
 -11  -3  -1 29658.7 1604.56   1
  11   3   1 31621.5 1538.31   1
  11  -3   1 29934.1 1412.74   1
 -11  -1   3 29236.0 1306.61   1
  11  -1   3 26431.1 1480.33   1
 -11  -3   1 28542.9 1522.35   1
  11   3   3 38376.7 1774.52   1
 -11  -3  -3 36630.9 1873.28   1
  11   1   5 352.939 211.137   1
 -11   1   5 123.718 73.2133   1
  11  -5  -1 267.480 116.660   1
  11  -1   5 133.817 168.395   1
   1   5  11 318.565 150.206   1
  -1   5  11 27.5707 29.7574   1
  -3  -5 -11 13370.3 1096.49   1
  11   3   5 14426.6 1206.72   1
  11  -5  -3 14468.5 644.851   1
  11   5   3 16456.6 1256.57   1
   3   5  11 13587.0 1173.86   1
  -3   5  11 17001.3 963.465   1
  -5   5  11 7149.63 474.340   1
   5   5  11 6978.30 867.296   1
   1  -7 -11 38025.0 1526.25   1
  -1  -7 -11 36485.7 1676.86   1
   1   7  11 36270.8 1544.05   1
  -1   7  11 38269.2 1474.23   1
 -11   1   7 34065.0 1117.69   1
  -3  -7 -11 54794.6 2261.87   1
   3   7  11 51158.1 2040.20   1
  -3   7  11 58500.8 1637.42   1
   1   9  11 326.999 184.608   1
   1  -9 -11 852.589 245.204   1
  -1  -9 -11 585.287 196.947   1
   1 -11 -11 10840.8 912.967   1
 -12   0   0 180406. 3575.75   1
  12   0   0 177620. 3333.64   1
 -12   0   2 80.1848 114.185   1
 -12  -2   0 84.7054 73.3021   1
  12  -2   0 173.612 109.292   1
  12   2   0 25.8606 52.9589   1
  12   0   2 135.851 134.001   1
 -12   0  -2 57.9989 103.997   1
 -12  -2  -2 2845.73 523.856   1
 -12   2   2 4902.06 535.464   1
  12   2   2 4565.83 602.592   1
  12  -2  -2 4281.66 428.912   1
 -12  -2   2 4102.55 547.427   1
  12  -2   2 3346.89 540.861   1
 -12   0  -4 211038. 4628.74   1
 -12   0   4 211267. 3508.40   1
 -12  -4   0 210346. 4610.35   1
  12  -4   0 212840. 3830.01   1
  12   0   4 211809. 4743.29   1
  12   2   4 2765.31 499.802   1
  12  -4  -2 1999.43 301.513   1
  12   4   2 2284.05 450.679   1
  -2   6  12 41.5621 56.6635   1
  12  -6  -2 29.5879 43.4576   1
  -4   6  12 1895.55 293.754   1
   0  -8 -12 110280. 3004.27   1
   0   8  12 112037. 2866.33   1
   2   8  12 6086.05 706.446   1
  -2   8  12 6801.50 679.068   1
 -13   1  -1 30960.0 1590.93   1
  13  -1   1 30738.4 1485.78   1
 -13   1   1 29941.1 1418.00   1
 -13  -1  -1 29377.9 1631.59   1
 -13  -1   1 28150.4 1510.32   1
  13   1   1 31171.8 1567.32   1
  13  -1  -1 33149.3 1396.81   1
  13   1   3 6839.57 780.293   1
  13  -3  -1 8779.52 712.823   1
 -13   1   3 6769.87 641.655   1
 -13  -1   3 7495.61 753.534   1
 -13  -3   1 6639.96 792.020   1
  13   3   1 6886.77 795.146   1
  13  -3   1 7481.44 807.029   1
  13  -1   3 7109.71 881.578   1
 -13   1   5 40691.3 1666.00   1
   1   5  13 38735.1 2223.70   1
  13  -5  -1 39704.1 1651.89   1
   1   7  13 7152.63 779.941   1
  -1   7  13 7390.61 763.555   1
   1   9  13 32620.2 1741.44   1
  -1   9  13 36941.2 1870.89   1
  14   0   0 24.3775 103.277   1
  14  -2   0 277.199 139.727   1
  14   2   0 405.694 222.330   1
  14   0   2 466.753 231.906   1
 -14   0   2 258.319 147.174   1
 -14  -2   2 107371. 3258.67   1
  14  -2  -2 109226. 2504.37   1
  14  -2   2 111100. 3324.18   1
 -14   0   4 39.9251 77.0848   1
 -15   1   1 7205.02 836.060   1
 -15  -1   1 7552.09 866.385   1
  15  -1   1 8140.66 853.971   1
  15  -1  -1 9478.78 854.137   1
  15  -3   1 21020.4 1473.77   1
 -15  -1   3 19293.2 1360.22   1
  15  -3  -1 22229.3 1227.84   1
  16   0   0 125779. 3563.52   1
  16  -2   0 152.629 727.601   1
   0   0   0    0.00    0.00   0
TITL marseno_018 in Fd-3m
REM Fd-3m (#227 in standard setting)
CELL 0.41427   9.852461   9.852461   9.852461  90.0000  90.0000  90.0000
ZERR    4.00   0.000345   0.000345   0.000345   0.0000   0.0000   0.0000
LATT  4
SYMM -x+3/4,-y+1/4, z+1/2
SYMM -x+1/4, y+1/2,-z+3/4
SYMM  x+1/2,-y+3/4,-z+1/4
SYMM  z, x, y
SYMM  z+1/2,-x+3/4,-y+1/4
SYMM -z+3/4,-x+1/4, y+1/2
SYMM -z+1/4, x+1/2,-y+3/4
SYMM  y, z, x
SYMM -y+1/4, z+1/2,-x+3/4
SYMM  y+1/2,-z+3/4,-x+1/4
SYMM -y+3/4,-z+1/4, x+1/2
SYMM  y+3/4, x+1/4,-z+1/2
SYMM -y,-x,-z
SYMM  y+1/4,-x+1/2, z+3/4
SYMM -y+1/2, x+3/4, z+1/4
SYMM  x+3/4, z+1/4,-y+1/2
SYMM -x+1/2, z+3/4, y+1/4
SYMM -x,-z,-y
SYMM  x+1/4,-z+1/2, y+3/4
SYMM  z+3/4, y+1/4,-x+1/2
SYMM  z+1/4,-y+1/2, x+3/4
SYMM -z+1/2, y+3/4, x+1/4
SYMM -z,-y,-x
SFAC O As
UNIT 24.00 16.00
TREF
HKLF 4
END
;
_shelx_hkl_checksum              94935
_shelx_shelxl_version_number     2014/7
loop_
_space_group_symop_operation_xyz
'x, y, z'
'-x+3/4, -y+1/4, z+1/2'
'-x+1/4, y+1/2, -z+3/4'
'x+1/2, -y+3/4, -z+1/4'
'z, x, y'
'z+1/2, -x+3/4, -y+1/4'
'-z+3/4, -x+1/4, y+1/2'
'-z+1/4, x+1/2, -y+3/4'
'y, z, x'
'-y+1/4, z+1/2, -x+3/4'
'y+1/2, -z+3/4, -x+1/4'
'-y+3/4, -z+1/4, x+1/2'
'y+3/4, x+1/4, -z+1/2'
'-y, -x, -z'
'y+1/4, -x+1/2, z+3/4'
'-y+1/2, x+3/4, z+1/4'
'x+3/4, z+1/4, -y+1/2'
'-x+1/2, z+3/4, y+1/4'
'-x, -z, -y'
'x+1/4, -z+1/2, y+3/4'
'z+3/4, y+1/4, -x+1/2'
'z+1/4, -y+1/2, x+3/4'
'-z+1/2, y+3/4, x+1/4'
'-z, -y, -x'
'x, y+1/2, z+1/2'
'-x+3/4, -y+3/4, z+1'
'-x+1/4, y+1, -z+5/4'
'x+1/2, -y+5/4, -z+3/4'
'z, x+1/2, y+1/2'
'z+1/2, -x+5/4, -y+3/4'
'-z+3/4, -x+3/4, y+1'
'-z+1/4, x+1, -y+5/4'
'y, z+1/2, x+1/2'
'-y+1/4, z+1, -x+5/4'
'y+1/2, -z+5/4, -x+3/4'
'-y+3/4, -z+3/4, x+1'
'y+3/4, x+3/4, -z+1'
'-y, -x+1/2, -z+1/2'
'y+1/4, -x+1, z+5/4'
'-y+1/2, x+5/4, z+3/4'
'x+3/4, z+3/4, -y+1'
'-x+1/2, z+5/4, y+3/4'
'-x, -z+1/2, -y+1/2'
'x+1/4, -z+1, y+5/4'
'z+3/4, y+3/4, -x+1'
'z+1/4, -y+1, x+5/4'
'-z+1/2, y+5/4, x+3/4'
'-z, -y+1/2, -x+1/2'
'x+1/2, y, z+1/2'
'-x+5/4, -y+1/4, z+1'
'-x+3/4, y+1/2, -z+5/4'
'x+1, -y+3/4, -z+3/4'
'z+1/2, x, y+1/2'
'z+1, -x+3/4, -y+3/4'
'-z+5/4, -x+1/4, y+1'
'-z+3/4, x+1/2, -y+5/4'
'y+1/2, z, x+1/2'
'-y+3/4, z+1/2, -x+5/4'
'y+1, -z+3/4, -x+3/4'
'-y+5/4, -z+1/4, x+1'
'y+5/4, x+1/4, -z+1'
'-y+1/2, -x, -z+1/2'
'y+3/4, -x+1/2, z+5/4'
'-y+1, x+3/4, z+3/4'
'x+5/4, z+1/4, -y+1'
'-x+1, z+3/4, y+3/4'
'-x+1/2, -z, -y+1/2'
'x+3/4, -z+1/2, y+5/4'
'z+5/4, y+1/4, -x+1'
'z+3/4, -y+1/2, x+5/4'
'-z+1, y+3/4, x+3/4'
'-z+1/2, -y, -x+1/2'
'x+1/2, y+1/2, z'
'-x+5/4, -y+3/4, z+1/2'
'-x+3/4, y+1, -z+3/4'
'x+1, -y+5/4, -z+1/4'
'z+1/2, x+1/2, y'
'z+1, -x+5/4, -y+1/4'
'-z+5/4, -x+3/4, y+1/2'
'-z+3/4, x+1, -y+3/4'
'y+1/2, z+1/2, x'
'-y+3/4, z+1, -x+3/4'
'y+1, -z+5/4, -x+1/4'
'-y+5/4, -z+3/4, x+1/2'
'y+5/4, x+3/4, -z+1/2'
'-y+1/2, -x+1/2, -z'
'y+3/4, -x+1, z+3/4'
'-y+1, x+5/4, z+1/4'
'x+5/4, z+3/4, -y+1/2'
'-x+1, z+5/4, y+1/4'
'-x+1/2, -z+1/2, -y'
'x+3/4, -z+1, y+3/4'
'z+5/4, y+3/4, -x+1/2'
'z+3/4, -y+1, x+3/4'
'-z+1, y+5/4, x+1/4'
'-z+1/2, -y+1/2, -x'
'-x, -y, -z'
'x-3/4, y-1/4, -z-1/2'
'x-1/4, -y-1/2, z-3/4'
'-x-1/2, y-3/4, z-1/4'
'-z, -x, -y'
'-z-1/2, x-3/4, y-1/4'
'z-3/4, x-1/4, -y-1/2'
'z-1/4, -x-1/2, y-3/4'
'-y, -z, -x'
'y-1/4, -z-1/2, x-3/4'
'-y-1/2, z-3/4, x-1/4'
'y-3/4, z-1/4, -x-1/2'
'-y-3/4, -x-1/4, z-1/2'
'y, x, z'
'-y-1/4, x-1/2, -z-3/4'
'y-1/2, -x-3/4, -z-1/4'
'-x-3/4, -z-1/4, y-1/2'
'x-1/2, -z-3/4, -y-1/4'
'x, z, y'
'-x-1/4, z-1/2, -y-3/4'
'-z-3/4, -y-1/4, x-1/2'
'-z-1/4, y-1/2, -x-3/4'
'z-1/2, -y-3/4, -x-1/4'
'z, y, x'
'-x, -y+1/2, -z+1/2'
'x-3/4, y+1/4, -z'
'x-1/4, -y, z-1/4'
'-x-1/2, y-1/4, z+1/4'
'-z, -x+1/2, -y+1/2'
'-z-1/2, x-1/4, y+1/4'
'z-3/4, x+1/4, -y'
'z-1/4, -x, y-1/4'
'-y, -z+1/2, -x+1/2'
'y-1/4, -z, x-1/4'
'-y-1/2, z-1/4, x+1/4'
'y-3/4, z+1/4, -x'
'-y-3/4, -x+1/4, z'
'y, x+1/2, z+1/2'
'-y-1/4, x, -z-1/4'
'y-1/2, -x-1/4, -z+1/4'
'-x-3/4, -z+1/4, y'
'x-1/2, -z-1/4, -y+1/4'
'x, z+1/2, y+1/2'
'-x-1/4, z, -y-1/4'
'-z-3/4, -y+1/4, x'
'-z-1/4, y, -x-1/4'
'z-1/2, -y-1/4, -x+1/4'
'z, y+1/2, x+1/2'
'-x+1/2, -y, -z+1/2'
'x-1/4, y-1/4, -z'
'x+1/4, -y-1/2, z-1/4'
'-x, y-3/4, z+1/4'
'-z+1/2, -x, -y+1/2'
'-z, x-3/4, y+1/4'
'z-1/4, x-1/4, -y'
'z+1/4, -x-1/2, y-1/4'
'-y+1/2, -z, -x+1/2'
'y+1/4, -z-1/2, x-1/4'
'-y, z-3/4, x+1/4'
'y-1/4, z-1/4, -x'
'-y-1/4, -x-1/4, z'
'y+1/2, x, z+1/2'
'-y+1/4, x-1/2, -z-1/4'
'y, -x-3/4, -z+1/4'
'-x-1/4, -z-1/4, y'
'x, -z-3/4, -y+1/4'
'x+1/2, z, y+1/2'
'-x+1/4, z-1/2, -y-1/4'
'-z-1/4, -y-1/4, x'
'-z+1/4, y-1/2, -x-1/4'
'z, -y-3/4, -x+1/4'
'z+1/2, y, x+1/2'
'-x+1/2, -y+1/2, -z'
'x-1/4, y+1/4, -z-1/2'
'x+1/4, -y, z-3/4'
'-x, y-1/4, z-1/4'
'-z+1/2, -x+1/2, -y'
'-z, x-1/4, y-1/4'
'z-1/4, x+1/4, -y-1/2'
'z+1/4, -x, y-3/4'
'-y+1/2, -z+1/2, -x'
'y+1/4, -z, x-3/4'
'-y, z-1/4, x-1/4'
'y-1/4, z+1/4, -x-1/2'
'-y-1/4, -x+1/4, z-1/2'
'y+1/2, x+1/2, z'
'-y+1/4, x, -z-3/4'
'y, -x-1/4, -z-1/4'
'-x-1/4, -z+1/4, y-1/2'
'x, -z-1/4, -y-1/4'
'x+1/2, z+1/2, y'
'-x+1/4, z, -y-3/4'
'-z-1/4, -y+1/4, x-1/2'
'-z+1/4, y, -x-3/4'
'z, -y-1/4, -x-1/4'
'z+1/2, y+1/2, x'
loop_
_atom_site_label
_atom_site_type_symbol
_atom_site_fract_x
_atom_site_fract_y
_atom_site_fract_z
_atom_site_U_iso_or_equiv
_atom_site_adp_type
_atom_site_occupancy
_atom_site_site_symmetry_order
_atom_site_calc_flag
_atom_site_refinement_flags_posn
_atom_site_refinement_flags_adp
_atom_site_refinement_flags_occupancy
As1 As 0.25755(5) 0.25755(5) 0.25755(5) 0.0100(4) Uani 1 6 d S T P
O1 O 0.3750 0.3750 0.1831(4) 0.0119(9) Uani 1 4 d S T P
loop_
_atom_site_aniso_label
_atom_site_aniso_U_11
_atom_site_aniso_U_22
_atom_site_aniso_U_33
_atom_site_aniso_U_23
_atom_site_aniso_U_13
_atom_site_aniso_U_12
As1 0.0100(4) 0.0100(4) 0.0100(4) -0.00047(13) -0.00047(13) -0.00047(13)
O1 0.0126(12) 0.0126(12) 0.0104(19) 0.000 0.000 -0.0002(15)
loop_
_atom_type_symbol
_atom_type_description
_atom_type_scat_dispersion_real
_atom_type_scat_dispersion_imag
_atom_type_scat_source
O O 0.0020 0.0020 'International Tables Vol C Tables 4.2.6.8 and 6.1.1.4'
As As 0.3110 0.7990 'International Tables Vol C Tables 4.2.6.8 and 6.1.1.4'
loop_
_geom_angle_atom_site_label_1
_geom_angle_atom_site_label_2
_geom_angle_atom_site_label_3
_geom_angle
_geom_angle_site_symmetry_1
_geom_angle_site_symmetry_3
O1 As1 O1 96.39(16) . 9
O1 As1 O1 96.39(16) . 5
O1 As1 O1 96.39(16) 9 5
As1 O1 As1 131.7(2) 26_554 .
loop_
_geom_bond_atom_site_label_1
_geom_bond_atom_site_label_2
_geom_bond_distance
_geom_bond_site_symmetry_2
As1 O1 1.7933(18) .
As1 O1 1.7933(18) 9
As1 O1 1.7933(18) 5
O1 As1 1.7932(18) 26_554
