#------------------------------------------------------------------------------
#$Date: 2015-09-04 08:12:49 +0300 (Fri, 04 Sep 2015) $
#$Revision: 153928 $
#$URL: svn://www.crystallography.net/cod/cif/4/51/35/4513577.cif $
#------------------------------------------------------------------------------
#
# This file is available in the Crystallography Open Database (COD),
# http://www.crystallography.net/
#
# All data on this site have been placed in the public domain by the
# contributors.
#
data_4513577
loop_
_publ_author_name
'Gu\'nka, Piotr A.'
'Dziubek, Kamil F.'
'G\/ladysiak, Andrzej'
'Dranka, Maciej'
'Piechota, Jacek'
'Hanfland, Michael'
'Katrusiak, Andrzej'
'Zachara, Janusz'
_publ_section_title
;
 Compressed Arsenolite As4O6and Its Helium Clathrate As4O6&#x00B7;2He
;
_journal_issue                   8
_journal_name_full               'Crystal Growth &amp; Design'
_journal_page_first              3740
_journal_paper_doi               10.1021/acs.cgd.5b00390
_journal_volume                  15
_journal_year                    2015
_chemical_formula_moiety         'As4 O6'
_chemical_formula_sum            'As4 O6'
_chemical_formula_weight         395.68
_chemical_name_common            arsenolite
_space_group_crystal_system      cubic
_space_group_IT_number           227
_space_group_name_Hall           '-F 4vw 2vw 3'
_space_group_name_H-M_alt        'F d -3 m'
_symmetry_space_group_name_Hall  '-F 4vw 2vw 3'
_symmetry_space_group_name_H-M   'F d -3 m :2'
_atom_sites_solution_primary     direct
_audit_creation_date             2014-10-15
_audit_creation_method
;
Olex2 1.2-beta
(compiled 2014.09.19 svn.r3010 for OlexSys, GUI svn.r4874)
;
_cell_angle_alpha                90
_cell_angle_beta                 90
_cell_angle_gamma                90
_cell_formula_units_Z            8
_cell_length_a                   9.9313(4)
_cell_length_b                   9.9313(4)
_cell_length_c                   9.9313(4)
_cell_measurement_pressure       1.296e7(6)
_cell_measurement_reflns_used    325
_cell_measurement_temperature    293(2)
_cell_measurement_theta_max      19.5000
_cell_measurement_theta_min      2.0550
_cell_volume                     979.53(7)
_computing_cell_refinement
;
CrysAlisPro, Agilent Technologies,
Version 1.171.37.34 (release 22-05-2014 CrysAlis171 .NET)
(compiled May 22 2014,16:03:01)
;
_computing_data_collection
;
CrysAlisPro, Agilent Technologies,
Version 1.171.37.34 (release 22-05-2014 CrysAlis171 .NET)
(compiled May 22 2014,16:03:01)
;
_computing_data_reduction
;
CrysAlisPro, Agilent Technologies,
Version 1.171.37.34 (release 22-05-2014 CrysAlis171 .NET)
(compiled May 22 2014,16:03:01)
;
_computing_molecular_graphics    'Olex2 (Dolomanov et al., 2009)'
_computing_publication_material  'Olex2 (Dolomanov et al., 2009)'
_computing_structure_refinement  'ShelXL (Sheldrick, 2008)'
_computing_structure_solution    'ShelXT (Sheldrick, 2008)'
_diffrn_ambient_environment      He
_diffrn_ambient_pressure         1.296e7(6)
_diffrn_ambient_temperature      293(2)
_diffrn_detector                 'CCD plate'
_diffrn_measured_fraction_theta_full 0.820
_diffrn_measured_fraction_theta_max 0.578
_diffrn_measurement_details
;
  1 phi    148.00  212.00   0.5000    1.0000
omega____ theta____ kappa____ phi______ frames
   0.0000    0.0000    0.0000     -     128
;
_diffrn_measurement_device       'abstract diffractometer'
_diffrn_measurement_device_type
'MAR-CrysAlisPro-abstract goniometer: imported MAR images'
_diffrn_measurement_method       '\p scans'
_diffrn_orient_matrix_UB_11      -0.0005289000
_diffrn_orient_matrix_UB_12      0.0338608000
_diffrn_orient_matrix_UB_13      0.0243951000
_diffrn_orient_matrix_UB_21      -0.0307084000
_diffrn_orient_matrix_UB_22      0.0161646000
_diffrn_orient_matrix_UB_23      -0.0231044000
_diffrn_orient_matrix_UB_31      -0.0282310000
_diffrn_orient_matrix_UB_32      -0.0182423000
_diffrn_orient_matrix_UB_33      0.0247022000
_diffrn_radiation_monochromator  synchrotron
_diffrn_radiation_probe          x-ray
_diffrn_radiation_wavelength     0.41427
_diffrn_reflns_av_R_equivalents  0.0248
_diffrn_reflns_av_unetI/netI     0.0181
_diffrn_reflns_laue_measured_fraction_full 0.820
_diffrn_reflns_laue_measured_fraction_max 0.578
_diffrn_reflns_limit_h_max       16
_diffrn_reflns_limit_h_min       -17
_diffrn_reflns_limit_k_max       9
_diffrn_reflns_limit_k_min       -11
_diffrn_reflns_limit_l_max       12
_diffrn_reflns_limit_l_min       -14
_diffrn_reflns_number            455
_diffrn_reflns_point_group_measured_fraction_full 0.820
_diffrn_reflns_point_group_measured_fraction_max 0.578
_diffrn_reflns_theta_full        14.392
_diffrn_reflns_theta_max         20.842
_diffrn_reflns_theta_min         2.070
_diffrn_source                   synchrotron
_exptl_absorpt_coefficient_mu    6.200
_exptl_absorpt_correction_T_max  1.00000
_exptl_absorpt_correction_T_min  0.59719
_exptl_absorpt_correction_type   multi-scan
_exptl_absorpt_process_details
;
CrysAlisPro, Agilent Technologies,
Version 1.171.37.34 (release 22-05-2014 CrysAlis171 .NET)
(compiled May 22 2014,16:03:01)
Empirical absorption correction using spherical harmonics,
 implemented in SCALE3 ABSPACK scaling algorithm.
;
_exptl_crystal_density_diffrn    5.366
_exptl_crystal_description       block
_exptl_crystal_F_000             1440
_exptl_crystal_size_max          0.065
_exptl_crystal_size_mid          0.04
_exptl_crystal_size_min          0.02
_refine_diff_density_max         0.624
_refine_diff_density_min         -0.597
_refine_diff_density_rms         0.152
_refine_ls_extinction_method     none
_refine_ls_goodness_of_fit_ref   1.248
_refine_ls_hydrogen_treatment    undef
_refine_ls_matrix_type           full
_refine_ls_number_parameters     8
_refine_ls_number_reflns         89
_refine_ls_number_restraints     0
_refine_ls_restrained_S_all      1.248
_refine_ls_R_factor_all          0.0311
_refine_ls_R_factor_gt           0.0293
_refine_ls_shift/su_max          0.000
_refine_ls_shift/su_mean         0.000
_refine_ls_structure_factor_coef Fsqd
_refine_ls_weighting_details
'w=1/[\s^2^(Fo^2^)+(0.0220P)^2^+18.7980P] where P=(Fo^2^+2Fc^2^)/3'
_refine_ls_weighting_scheme      calc
_refine_ls_wR_factor_gt          0.0628
_refine_ls_wR_factor_ref         0.0655
_reflns_Friedel_coverage         0.000
_reflns_number_gt                84
_reflns_number_total             89
_reflns_threshold_expression     'I > 2\s(I)'
_cod_data_source_file            cg5b00390_si_002.cif
_cod_data_source_block           marseno_017
_cod_original_cell_volume        979.54(10)
_cod_database_code               4513577
_shelx_space_group_comment
;
The symmetry employed for this shelxl refinement is uniquely defined
by the following loop, which should always be used as a source of
symmetry information in preference to the above space-group names.
They are only intended as comments.
;
_olex2_refinement_description
;
;
_shelx_res_file
;
    marseno_017.res created by SHELXL-2014/7

TITL marseno_017_a.res in Fd-3m
CELL 0.41427 9.93133 9.93133 9.93133 90 90 90
ZERR 8 0.000352 0.000352 0.000352 0 0 0
LATT 4
SYMM 0.75-X,0.25-Y,0.5+Z
SYMM 0.25-X,0.5+Y,0.75-Z
SYMM 0.5+X,0.75-Y,0.25-Z
SYMM +Z,+X,+Y
SYMM 0.5+Z,0.75-X,0.25-Y
SYMM 0.75-Z,0.25-X,0.5+Y
SYMM 0.25-Z,0.5+X,0.75-Y
SYMM +Y,+Z,+X
SYMM 0.25-Y,0.5+Z,0.75-X
SYMM 0.5+Y,0.75-Z,0.25-X
SYMM 0.75-Y,0.25-Z,0.5+X
SYMM 0.75+Y,0.25+X,0.5-Z
SYMM -Y,-X,-Z
SYMM 0.25+Y,0.5-X,0.75+Z
SYMM 0.5-Y,0.75+X,0.25+Z
SYMM 0.75+X,0.25+Z,0.5-Y
SYMM 0.5-X,0.75+Z,0.25+Y
SYMM -X,-Z,-Y
SYMM 0.25+X,0.5-Z,0.75+Y
SYMM 0.75+Z,0.25+Y,0.5-X
SYMM 0.25+Z,0.5-Y,0.75+X
SYMM 0.5-Z,0.75+Y,0.25+X
SYMM -Z,-Y,-X

SFAC O As
DISP As 0.311 0.799 1882.762
DISP O 0.002 0.002 10.067
UNIT 48 32

L.S. 10
PLAN  20
REM Old TITL marseno_017 in Fd-3m #227
BOND $H
LIST 6
fmap 2
acta
OMIT 0 0 16
REM <HKL>E:/X-Ray_Data_Backup/ESRF_id09_2014_10/data/arsenolite/arseno_017/str
REM uct/olex2_marseno_017/marseno_017.hkl</HKL>

WGHT    0.022000   18.798000
FVAR       1.61231
AS1   2    0.258607    0.258607    0.258607    10.16667    0.00975    0.00975 =
         0.00975   -0.00059   -0.00059   -0.00059
O1    1    0.375000    0.375000    0.183974    10.25000    0.01094    0.01094 =
         0.00921    0.00000    0.00000   -0.00183
HKLF 4

REM  marseno_017_a.res in Fd-3m
REM R1 =  0.0293 for      84 Fo > 4sig(Fo)  and  0.0311 for all      89 data
REM      8 parameters refined using      0 restraints

END

WGHT      0.0222     18.8218

REM Highest difference peak  0.624,  deepest hole -0.597,  1-sigma level  0.152
Q1    1   0.2696  0.2696  0.3341  10.50000  0.05    0.62
Q2    1   0.1692  0.2692  0.2692  10.50000  0.05    0.51
Q3    1   0.1970  0.1970  0.1970  10.16667  0.05    0.47
Q4    1   0.1931  0.2891  0.2509  11.00000  0.05    0.45
Q5    1   0.3750  0.3750  0.2326  10.25000  0.05    0.44
Q6    1   0.4421  0.3732  0.1936  11.00000  0.05    0.42
Q7    1   0.2147  0.2962  0.2416  11.00000  0.05    0.40
Q8    1   0.2115  0.1250  0.1250  10.25000  0.05    0.39
Q9    1   0.1310  0.2225  0.2225  10.50000  0.05    0.35
Q10   1   0.4186  0.2904  0.2904  10.50000  0.05    0.35
Q11   1   0.2385  0.1715  0.1715  10.50000  0.05    0.33
Q12   1   0.2285  0.0970  0.2285  10.50000  0.05    0.33
Q13   1   0.3750  0.3750  0.1246  10.25000  0.05    0.31
Q14   1   0.3118  0.4382  0.3118  10.16667  0.05    0.30
Q15   1   0.3471  0.4029  0.2174  10.50000  0.05    0.29
Q16   1   0.3001  0.4499  0.1463  10.50000  0.05    0.25
Q17   1   0.4527  0.3460  0.1015  11.00000  0.05    0.24
Q18   1   0.2854  0.5044  0.2456  10.50000  0.05    0.24
Q19   1   0.2779  0.1394  0.2779  10.50000  0.05    0.24
Q20   1   0.3075  0.3075  0.0151  10.50000  0.05    0.23
;
_shelx_res_checksum              99532
_shelx_hkl_file
;
   1  -1   1 76150.1 871.651   1
  -1   1  -1 78760.3 840.188   1
   2   0   0 3.08746 12.1494   1
  -2   0   0 20.9209 17.7902   1
  -2   0  -2 4517.57 282.726   1
   2   0   2 3933.93 267.093   1
   0  -2   2 3754.69 196.498   1
  -3  -1  -1 353.437 77.1471   1
   1  -1   3 390.031 76.5286   1
  -3  -1   1 268.986 47.6729   1
  -3   1  -1 262.329 77.1827   1
   3  -1   1 290.414 78.8046   1
   3   1  -1 323.356 47.6877   1
  -1   1  -3 246.789 67.4757   1
  -3   1  -3 94785.1 1548.42   1
   3  -1   3 93810.1 1544.34   1
   1   3  -3 92373.4 1076.07   1
   3  -3   1 93210.7 1470.37   1
  -1  -3   3 91137.6 1084.92   1
   1  -3   3 94786.8 1397.14   1
  -1   3  -3 92674.8 1346.70   1
  -3  -3   3 3204.70 112.651   1
   3  -3   3 3996.99 354.147   1
  -3   3  -3 4378.38 347.607   1
   0   2  -4 12.7686 22.0962   1
   0  -2   4 15.4769 22.1791   1
   4  -2   0 9.33201 24.0221   1
   4   0  -2 5.75457 15.2696   1
  -4  -2   2 35570.2 466.599   1
   2  -2   4 35078.5 979.679   1
   2   2  -4 35324.5 580.567   1
   4  -2   2 37784.4 1046.99   1
  -4   2  -2 34738.2 956.765   1
  -2   2  -4 35671.3 982.879   1
  -4   4  -2 2447.75 268.554   1
   4  -2   4 2670.92 333.030   1
   2  -4   4 2866.36 294.678   1
  -2   4  -4 2775.99 277.558   1
  -2  -4   4 2603.28 191.778   1
   4  -4   2 2719.79 293.825   1
  -4   2  -4 2854.24 336.961   1
  -5  -1   1 6403.10 314.553   1
   5   1   1 6458.01 380.989   1
  -5   1  -1 6569.84 406.188   1
  -5  -1  -1 6695.36 411.819   1
   5   1  -1 6247.65 308.118   1
   5  -1   1 6800.89 418.218   1
  -5   1   1 6098.35 334.012   1
   5  -1  -1 6205.19 369.967   1
  -3   1  -5 14667.6 768.048   1
  -5   3  -1 12763.6 613.403   1
   5  -3   1 13244.9 651.798   1
   3  -1   5 13108.0 687.917   1
  -1  -3   5 13674.4 485.057   1
  -5   1  -3 13768.1 714.808   1
  -1   3  -5 13338.4 613.779   1
   5  -1   3 13056.8 674.749   1
   1  -3   5 13314.3 608.632   1
   1   3  -5 13445.1 505.443   1
   5   1  -3 13035.7 365.762   1
  -5  -3   3 647.885 46.8028   1
   3  -3   5 568.466 164.154   1
  -3   3  -5 898.166 176.977   1
  -3   5  -3 758.998 159.408   1
   3   3  -5 917.654 92.1654   1
   5  -3   3 687.267 162.366   1
   3  -5   3 565.567 135.200   1
  -5   3  -3 847.916 162.458   1
   1   5  -5 179108. 2067.62   1
  -5   1  -5 177626. 2949.03   1
   5  -1   5 173462. 2768.45   1
  -1  -5   5 183554. 2179.14   1
   1  -5   5 178882. 2486.97   1
  -1   5  -5 177140. 2361.05   1
  -3  -5   5 13177.0 444.334   1
   3  -5   5 12288.2 720.672   1
  -5   5  -3 12310.0 721.997   1
   5  -3   5 13113.4 792.997   1
   5  -5   3 11841.3 723.988   1
  -3   5  -5 12238.9 681.131   1
  -5   3  -5 13398.7 811.404   1
   5  -5   5 39936.8 1428.96   1
  -5   5  -5 38620.3 1365.86   1
   6   0   0 2.15645 16.5869   1
  -6   0   0 26.4663 33.2187   1
  -6  -2   0 1998.60 211.028   1
  -6   2   0 1994.56 230.376   1
   0   2  -6 1744.03 235.312   1
   6   0  -2 2057.30 204.280   1
   6  -2   0 2136.97 254.820   1
   6   0   2 1954.98 243.754   1
  -6   0  -2 1662.39 236.920   1
   0  -6   4 25.2842 33.3972   1
   0  -4   6 12.3481 28.8084   1
   6   0   4 1.78225 22.9390   1
   2  -6   4 579.473 133.746   1
  -2   4  -6 836.565 166.777   1
   6  -4   2 1026.12 222.088   1
  -6   4  -2 875.700 193.454   1
   2  -4   6 838.489 176.917   1
  -4   2  -6 645.485 177.450   1
   4  -2   6 811.954 192.237   1
   6  -2   4 683.204 163.312   1
  -6   2  -4 667.020 191.693   1
   2   4  -6 840.105 123.369   1
   6   2  -4 765.216 73.5135   1
  -2  -4   6 521.659 102.330   1
   4  -4   6 1896.78 309.330   1
  -6   4  -4 1293.75 252.083   1
   4  -6   4 1244.20 234.304   1
  -4   4  -6 1071.41 234.393   1
   6  -4   4 909.887 218.869   1
  -4   6  -4 1532.05 254.358   1
   0   6  -6 49284.2 1273.27   1
   0  -6   6 49419.9 1325.59   1
  -6   4  -6 70.8019 56.2452   1
   6  -4   6 72.7148 106.338   1
  -4  -6   6 61.4790 30.1840   1
   6  -6   4 2.42584 26.3878   1
  -4   6  -6 98.2590 70.4774   1
   7  -1   1 14189.6 729.275   1
   7  -1  -1 15452.7 696.827   1
  -7  -1  -1 13823.5 682.977   1
   7   1  -1 14884.0 592.378   1
  -7   1   1 14060.7 610.525   1
  -7  -1   1 14705.1 587.440   1
  -7   1  -1 14172.2 715.709   1
   7   1   1 14957.9 675.008   1
  -1   3  -7 27304.6 1020.56   1
   7   1  -3 27689.1 713.523   1
  -7  -3   1 26715.7 784.156   1
   1   3  -7 27734.6 885.531   1
  -7   3  -1 27945.5 1045.25   1
  -7  -1  -3 30067.0 1199.00   1
   7   1   3 30617.8 1149.71   1
  -7   1  -3 28744.0 1187.61   1
   1  -3   7 28691.9 1000.28   1
   7  -3   1 29385.7 1175.08   1
   7  -1   3 26756.0 1092.27   1
   3   3  -7 161235. 1751.39   1
  -7  -3   3 159155. 1371.88   1
   7  -3   3 160079. 2761.89   1
  -7   3  -3 159733. 2782.79   1
   3  -3   7 165840. 2718.02   1
  -3   3  -7 159895. 2808.43   1
   1  -7   5 2814.37 347.019   1
  -1  -5   7 3742.05 330.339   1
   7   1  -5 3036.61 213.107   1
  -1   5  -7 3790.91 376.287   1
  -7   1  -5 3142.34 427.089   1
   1   5  -7 3688.43 313.821   1
   1  -5   7 3240.22 359.220   1
  -1  -7   5 3800.40 361.817   1
   7  -1   5 3665.78 448.435   1
  -3   5  -7 13130.8 791.437   1
   5  -3   7 12735.4 840.494   1
   3  -5   7 12454.0 798.812   1
  -3  -5   7 13272.8 510.928   1
  -7  -5   3 11096.2 403.399   1
   3   5  -7 12965.1 483.571   1
  -5   3  -7 12803.7 925.369   1
   5   3  -7 10064.3 314.416   1
   7  -5   3 12551.3 863.778   1
   7  -3   5 13057.7 887.230   1
  -7   5  -3 13260.9 836.564   1
   3  -7   5 12120.6 786.628   1
  -7   3  -5 11971.5 839.468   1
  -7   5  -5 8418.76 699.956   1
   5  -5   7 7540.83 675.043   1
   7  -5   5 6617.42 621.160   1
  -5   7  -5 7522.91 656.436   1
   5  -7   5 6857.32 629.037   1
  -5   5  -7 7465.66 669.661   1
   1  -7   7 67244.4 1787.96   1
  -7   1  -7 64531.0 2250.59   1
   7  -1   7 62638.5 2073.77   1
  -1  -7   7 67429.5 1575.81   1
  -1   7  -7 68448.5 1749.27   1
   7  -3   7 52563.2 1870.99   1
  -3   7  -7 56616.3 1746.54   1
   3  -7   7 55352.9 1753.17   1
  -3  -7   7 56535.7 1254.01   1
  -7   3  -7 53576.4 2019.46   1
   5  -7   7 15327.6 997.555   1
  -5  -7   7 13425.2 425.914   1
  -7   7  -5 15014.5 994.416   1
   7  -5   7 16154.4 1107.35   1
  -5   7  -7 17041.1 1033.54   1
   7  -7   5 15891.0 1116.98   1
  -7   5  -7 14825.4 1055.32   1
  -7   7  -7 107784. 2863.22   1
  -8   2   0 37.6366 48.8480   1
   8   0  -2 24.4189 18.7564   1
  -8  -2   0 24.7905 25.0688   1
   8  -2   0 22.3352 40.4930   1
   8   0   2 53.6332 65.1935   1
   8  -2  -2 20673.3 940.537   1
  -8   2  -2 20055.2 982.950   1
  -2   2  -8 20333.8 1144.51   1
   8  -2   2 20107.1 988.790   1
  -8  -2  -2 19710.9 959.273   1
   8   2  -2 20614.2 677.369   1
  -8  -2   2 20318.8 674.065   1
   8  -2   4 4238.07 516.495   1
   8   2  -4 4773.69 275.123   1
  -8  -4   2 4395.59 307.864   1
  -8   4  -2 4446.31 480.856   1
  -2   4  -8 4433.88 476.739   1
   8  -4   2 4751.43 542.178   1
   2   4  -8 4735.92 374.132   1
   2  -4   8 3962.64 428.067   1
  -8   2  -4 4514.75 529.981   1
  -4   2  -8 4350.42 573.959   1
   0  -8   6 2.05352 42.3829   1
   8  -2   6 5692.32 613.627   1
   6  -2   8 5575.64 617.720   1
  -2  -6   8 5673.93 405.263   1
  -6   2  -8 5656.31 672.055   1
   2  -6   8 4991.11 526.026   1
   8   2  -6 4613.69 225.178   1
  -2   6  -8 5163.80 508.757   1
   2   6  -8 5359.75 381.777   1
  -8   2  -6 4792.93 619.627   1
   2  -8   6 4441.38 523.112   1
   6  -4   8 3574.28 488.855   1
  -6   4  -8 2390.02 423.453   1
   8  -4   6 2807.31 447.529   1
   4  -6   8 2904.57 427.767   1
  -8  -6   4 1617.37 136.250   1
   8  -6   4 3505.56 540.479   1
  -4   6  -8 2804.53 396.521   1
  -8   6  -4 3229.26 445.217   1
   4  -8   6 2473.00 398.064   1
   6  -6   8 4009.01 548.771   1
  -6  -8   6 2361.75 194.174   1
   6  -8   6 3548.30 527.221   1
  -8   6  -6 3670.83 523.386   1
  -6   6  -8 3220.21 507.159   1
  -6   8  -6 3842.89 536.868   1
   0  -8   8 217462. 3311.23   1
   8  -2   8 10741.5 927.934   1
  -2  -8   8 11366.9 667.308   1
   2  -8   8 10036.5 774.404   1
  -8   2  -8 8634.20 930.225   1
  -2   8  -8 10563.2 776.608   1
  -4  -8   8 264802. 2684.89   1
   4  -8   8 266326. 4302.17   1
  -8   4  -8 261726. 4841.17   1
  -6   8  -8 6753.08 746.898   1
   9   1   1 64966.7 1630.65   1
  -9  -1   1 64384.8 1470.63   1
   9  -1   1 63895.9 1773.01   1
   9  -1  -1 64300.6 1646.84   1
  -9   1   1 60597.2 1497.47   1
  -9  -1  -1 63314.2 1682.01   1
  -9   1  -1 61131.8 1679.94   1
   9   1  -1 63594.0 1452.93   1
   9  -1   3 29680.5 1292.64   1
   9   1  -3 29153.4 921.700   1
   1   3  -9 27817.3 1145.87   1
  -9  -3  -1 28452.0 1159.04   1
  -1   3  -9 28263.1 1279.17   1
  -9   3  -1 28259.8 1182.13   1
  -9  -1  -3 26091.2 1196.60   1
   9  -3   1 29078.5 1309.29   1
  -9  -3   1 29548.8 1009.97   1
   9   1   3 25383.9 1159.36   1
  -9   1  -3 29869.6 1355.09   1
   9  -1  -3 28630.6 1060.93   1
   9  -3  -1 29391.6 1288.55   1
  -9  -3   3 11.2384 37.8495   1
   9  -3   3 2.60499 31.0412   1
  -9   3  -3 33.6954 40.5593   1
   1   5  -9 48747.8 1365.68   1
   9  -1   5 53557.6 1909.48   1
   1  -5   9 54220.9 1613.29   1
   9   1  -5 50637.6 1113.50   1
  -9   1  -5 49060.6 1954.87   1
  -1   5  -9 51967.8 1616.48   1
  -9   3  -5 29885.2 1468.43   1
   5  -3   9 27389.4 1358.28   1
   3   5  -9 31026.8 922.012   1
   3  -5   9 30013.5 1332.24   1
   9  -3   5 29694.0 1491.68   1
   5   3  -9 30258.2 855.005   1
  -9   5  -3 28877.3 1363.74   1
  -5   3  -9 28698.2 1555.97   1
   9  -5   3 31038.7 1567.11   1
  -9  -5   3 28183.6 781.780   1
  -3   5  -9 31459.9 1436.31   1
   5  -5   9 110085. 2792.45   1
  -9   5  -5 108896. 2857.95   1
   9  -5   5 105214. 2892.10   1
  -5   5  -9 105536. 2796.25   1
  -1  -7   9 711.040 160.039   1
   1  -7   9 1042.77 244.057   1
  -9   1  -7 523.028 227.062   1
   1   7  -9 1020.87 194.968   1
  -1   7  -9 833.816 207.803   1
   9  -1   7 1087.58 297.088   1
   1  -9   7 880.853 221.598   1
   3  -7   9 1007.49 272.075   1
  -9   3  -7 583.603 234.156   1
  -3   7  -9 1566.41 300.354   1
  -7   3  -9 1148.57 374.459   1
   3  -9   7 1393.86 337.125   1
  -3  -7   9 1984.84 248.927   1
  -3  -9   7 44.2027 50.1539   1
  -7   5  -9 4714.59 648.022   1
   5  -7   9 4243.51 636.582   1
  -5   7  -9 4514.98 570.158   1
  -5  -9   7 3702.22 299.496   1
  -1  -9   9 53221.7 1697.38   1
   1  -9   9 60298.7 2031.22   1
  -3  -9   9 39356.4 1265.99   1
   3  -9   9 42480.4 1872.13   1
  -3   9  -9 37861.9 1667.41   1
 -10   0   0 60.7205 51.3980   1
  10   0  -2 7746.29 573.368   1
  10  -2   0 7453.77 622.869   1
 -10   2   0 8077.43 617.461   1
  10   0   2 7545.06 622.465   1
 -10   0   2 7994.92 539.479   1
 -10  -2   0 7935.88 596.827   1
 -10   0  -2 8428.77 702.463   1
 -10  -4   0 60.0667 53.2451   1
   0   4 -10 81.2685 101.661   1
 -10   0  -4 9.43925 94.3549   1
  10  -2   4 569.642 212.360   1
 -10  -4   2 347.532 111.399   1
 -10   2  -4 307.609 147.289   1
  10  -4   2 738.792 231.014   1
   2   4 -10 359.656 143.576   1
  -2   4 -10 317.261 169.914   1
 -10   4  -2 478.175 168.498   1
  10   2  -4 572.388 118.085   1
  10  -4   4 461.522 200.450   1
 -10   4  -4 610.070 226.022   1
   4   4 -10 335.360 114.564   1
  -4   4 -10 122.279 102.017   1
   4  -4  10 294.051 159.610   1
 -10   0  -6 33.5698 57.3803   1
   0  -6  10 104.899 84.9878   1
  -2   6 -10 222168. 3693.73   1
   2  -6  10 212098. 3682.09   1
  10   2  -6 219105. 2041.96   1
   2   6 -10 223706. 2852.38   1
 -10   2  -6 221268. 4549.91   1
   6   4 -10 13023.2 452.129   1
   4  -6  10 17729.4 1123.93   1
  -4   6 -10 17834.1 1149.76   1
 -10   6  -4 20625.7 1295.69   1
 -10   4  -6 1272.55 333.266   1
  -6   4 -10 17515.4 1385.72   1
   0  -8  10 73.1869 50.3506   1
   2  -8  10 156.836 148.183   1
   2 -10   8 44.7948 137.101   1
  -4 -10   8 206.775 86.2014   1
  -4   8 -10 564.761 233.388   1
   0 -10  10 37294.5 1600.08   1
  -2 -10  10 91768.2 2164.70   1
   2 -10  10 89731.2 2890.94   1
  11   1  -1 39679.0 1303.61   1
  11   1   1 39010.2 1424.99   1
  11  -1   1 37934.8 1534.09   1
 -11   1  -1 38790.3 1472.76   1
 -11  -1   1 41488.3 1332.18   1
  11  -1  -1 38689.8 1439.57   1
 -11   1   1 38792.2 1358.28   1
 -11  -1  -1 38103.9 1436.50   1
 -11   1  -3 34355.1 1509.85   1
  11   1   3 39913.8 1624.40   1
  11  -1   3 37280.9 1605.41   1
  11   1  -3 37628.8 1213.93   1
  11  -3   1 35649.2 1539.14   1
 -11   3  -1 36542.4 1496.28   1
 -11  -3  -1 35336.1 1421.45   1
  11  -1  -3 36105.5 1325.67   1
 -11  -1  -3 37465.0 1674.92   1
  11  -3  -1 40249.7 1685.90   1
 -11  -3   1 37908.6 1259.80   1
 -11   3  -3 51615.2 1917.98   1
  11  -3   3 49967.5 1997.51   1
 -11  -3   3 51761.8 1203.27   1
  -1   5 -11 243.471 172.691   1
   1   5 -11 457.533 173.755   1
 -11   1  -5 586.433 232.082   1
  11   1  -5 536.749 139.416   1
 -11  -5   1 74.8465 78.9801   1
 -11  -1  -5 45.3391 135.066   1
  11  -5   1 192.295 160.126   1
  11  -1   5 381.228 327.843   1
   3  -5  11 16583.5 1105.66   1
 -11  -5   3 16821.2 662.580   1
 -11   3  -5 17796.6 1266.60   1
 -11   5  -3 18349.4 1206.67   1
  -3   5 -11 17778.7 1265.39   1
   3   5 -11 18607.0 875.388   1
   5   5 -11 7525.62 448.597   1
  -5   5 -11 7544.92 915.186   1
  -1  -7  11 46582.2 1550.66   1
   1  -7  11 47601.4 1763.33   1
  -1   7 -11 46684.0 1684.95   1
   1   7 -11 48161.9 1539.94   1
  11   1  -7 46890.5 1163.39   1
  -3   7 -11 64381.0 2199.60   1
   3   7 -11 65171.4 1548.05   1
   1  -9  11 623.347 211.275   1
  -1   9 -11 739.576 218.794   1
  -3   9 -11 2489.25 429.703   1
  -1 -11  11 15164.5 931.459   1
  12   0   0 164281. 3101.93   1
 -12   0   0 165438. 3019.15   1
  12   0  -2 37.4579 37.1314   1
 -12   2   0 113.401 109.649   1
  12  -2   0 27.7378 77.5151   1
 -12   0  -2 256.396 158.119   1
  12   0   2 8.71034 42.3733   1
  12   2  -2 4435.60 430.697   1
  12  -2   2 4396.08 587.164   1
 -12   2  -2 4877.40 594.380   1
 -12  -2   2 4627.69 434.404   1
  12  -2  -2 4024.85 493.509   1
 -12  -2  -2 4089.64 532.003   1
  12   0   4 204834. 4039.39   1
  12   0  -4 204856. 3066.66   1
  12  -4   0 200927. 4257.30   1
 -12  -4   0 206661. 3489.59   1
 -12   0  -4 206955. 4306.53   1
  12   2  -4 4217.04 387.729   1
 -12   4  -2 4417.02 557.994   1
 -12  -4   2 3655.96 391.905   1
 -12   2  -4 3074.76 525.715   1
   0   6 -12 204.218 116.918   1
   2   6 -12 2.18764 64.7340   1
   4   6 -12 2391.99 306.535   1
   0  -8  12 96333.6 2529.53   1
   0   8 -12 95164.2 2450.81   1
  -2   8 -12 11260.9 901.870   1
   2   8 -12 10319.6 728.422   1
  13   1   1 39495.0 1605.87   1
  13   1  -1 40688.5 1514.34   1
 -13  -1  -1 38472.1 1604.25   1
  13  -1   1 38133.9 1679.87   1
  13  -1  -1 37402.4 1583.99   1
 -13   1  -1 37962.7 1618.32   1
 -13  -1   1 41185.5 1476.42   1
 -13   1   1 38680.9 1517.60   1
 -13   1  -3 9316.33 889.932   1
  13   1  -3 10369.6 704.010   1
 -13  -3   1 9787.61 729.303   1
  13  -1  -3 10015.2 762.169   1
  13  -3  -1 9536.46 850.095   1
 -13   3  -1 9937.74 855.772   1
 -13  -3  -1 11464.8 913.299   1
 -13  -1  -3 10823.1 994.885   1
  13   1  -5 45587.5 1451.50   1
  -1   5 -13 45064.5 2125.99   1
   1   5 -13 46251.0 1936.92   1
 -13  -5   1 47707.4 1596.25   1
  -3   5 -13 29103.8 1840.88   1
  -1   7 -13 8641.18 820.926   1
   1   7 -13 8806.67 730.229   1
  -1   9 -13 38884.7 1754.42   1
   1   9 -13 40569.8 1674.10   1
 -14   0   0 75.8957 62.6642   1
  14   0  -2 709.965 215.289   1
  14  -2   0 1344.79 433.949   1
 -14   0  -2 747.185 249.925   1
 -14  -2   0 966.145 232.776   1
 -14   2   0 783.975 225.725   1
  14  -2  -2 92246.1 2610.27   1
 -14  -2   2 95113.4 2061.87   1
 -14  -2  -2 97464.7 2828.21   1
  14   0  -4 158.591 111.567   1
   0   6 -14 12591.8 1068.97   1
   0   8 -14 46.5359 75.8452   1
  15   1  -1 11325.8 876.084   1
  15  -1  -1 9804.22 875.886   1
 -15  -1  -1 10340.1 920.838   1
 -15  -1   1 11620.1 832.281   1
 -15  -3  -1 24453.5 1389.03   1
  15   1  -3 26932.4 1341.62   1
  15  -1  -3 23506.4 1325.66   1
 -15  -3   1 23589.4 1139.53   1
 -16   0   0 101759. 2845.55   1
  16   0  -2 42.0104 136.144   1
 -17  -1   1 19065.9 1104.15   1
   0   0   0    0.00    0.00   0
TITL marseno_017 in Fd-3m
REM Fd-3m (#227 in standard setting)
CELL 0.41427   9.931330   9.931330   9.931330  90.0000  90.0000  90.0000
ZERR    5.00   0.000352   0.000352   0.000352   0.0000   0.0000   0.0000
LATT  4
SYMM -x+3/4,-y+1/4, z+1/2
SYMM -x+1/4, y+1/2,-z+3/4
SYMM  x+1/2,-y+3/4,-z+1/4
SYMM  z, x, y
SYMM  z+1/2,-x+3/4,-y+1/4
SYMM -z+3/4,-x+1/4, y+1/2
SYMM -z+1/4, x+1/2,-y+3/4
SYMM  y, z, x
SYMM -y+1/4, z+1/2,-x+3/4
SYMM  y+1/2,-z+3/4,-x+1/4
SYMM -y+3/4,-z+1/4, x+1/2
SYMM  y+3/4, x+1/4,-z+1/2
SYMM -y,-x,-z
SYMM  y+1/4,-x+1/2, z+3/4
SYMM -y+1/2, x+3/4, z+1/4
SYMM  x+3/4, z+1/4,-y+1/2
SYMM -x+1/2, z+3/4, y+1/4
SYMM -x,-z,-y
SYMM  x+1/4,-z+1/2, y+3/4
SYMM  z+3/4, y+1/4,-x+1/2
SYMM  z+1/4,-y+1/2, x+3/4
SYMM -z+1/2, y+3/4, x+1/4
SYMM -z,-y,-x
SFAC O As
UNIT 30.00 20.00
TREF
HKLF 4
END
;
_shelx_hkl_checksum              85021
_shelx_shelxl_version_number     2014/7
loop_
_space_group_symop_operation_xyz
'x, y, z'
'-x+3/4, -y+1/4, z+1/2'
'-x+1/4, y+1/2, -z+3/4'
'x+1/2, -y+3/4, -z+1/4'
'z, x, y'
'z+1/2, -x+3/4, -y+1/4'
'-z+3/4, -x+1/4, y+1/2'
'-z+1/4, x+1/2, -y+3/4'
'y, z, x'
'-y+1/4, z+1/2, -x+3/4'
'y+1/2, -z+3/4, -x+1/4'
'-y+3/4, -z+1/4, x+1/2'
'y+3/4, x+1/4, -z+1/2'
'-y, -x, -z'
'y+1/4, -x+1/2, z+3/4'
'-y+1/2, x+3/4, z+1/4'
'x+3/4, z+1/4, -y+1/2'
'-x+1/2, z+3/4, y+1/4'
'-x, -z, -y'
'x+1/4, -z+1/2, y+3/4'
'z+3/4, y+1/4, -x+1/2'
'z+1/4, -y+1/2, x+3/4'
'-z+1/2, y+3/4, x+1/4'
'-z, -y, -x'
'x, y+1/2, z+1/2'
'-x+3/4, -y+3/4, z+1'
'-x+1/4, y+1, -z+5/4'
'x+1/2, -y+5/4, -z+3/4'
'z, x+1/2, y+1/2'
'z+1/2, -x+5/4, -y+3/4'
'-z+3/4, -x+3/4, y+1'
'-z+1/4, x+1, -y+5/4'
'y, z+1/2, x+1/2'
'-y+1/4, z+1, -x+5/4'
'y+1/2, -z+5/4, -x+3/4'
'-y+3/4, -z+3/4, x+1'
'y+3/4, x+3/4, -z+1'
'-y, -x+1/2, -z+1/2'
'y+1/4, -x+1, z+5/4'
'-y+1/2, x+5/4, z+3/4'
'x+3/4, z+3/4, -y+1'
'-x+1/2, z+5/4, y+3/4'
'-x, -z+1/2, -y+1/2'
'x+1/4, -z+1, y+5/4'
'z+3/4, y+3/4, -x+1'
'z+1/4, -y+1, x+5/4'
'-z+1/2, y+5/4, x+3/4'
'-z, -y+1/2, -x+1/2'
'x+1/2, y, z+1/2'
'-x+5/4, -y+1/4, z+1'
'-x+3/4, y+1/2, -z+5/4'
'x+1, -y+3/4, -z+3/4'
'z+1/2, x, y+1/2'
'z+1, -x+3/4, -y+3/4'
'-z+5/4, -x+1/4, y+1'
'-z+3/4, x+1/2, -y+5/4'
'y+1/2, z, x+1/2'
'-y+3/4, z+1/2, -x+5/4'
'y+1, -z+3/4, -x+3/4'
'-y+5/4, -z+1/4, x+1'
'y+5/4, x+1/4, -z+1'
'-y+1/2, -x, -z+1/2'
'y+3/4, -x+1/2, z+5/4'
'-y+1, x+3/4, z+3/4'
'x+5/4, z+1/4, -y+1'
'-x+1, z+3/4, y+3/4'
'-x+1/2, -z, -y+1/2'
'x+3/4, -z+1/2, y+5/4'
'z+5/4, y+1/4, -x+1'
'z+3/4, -y+1/2, x+5/4'
'-z+1, y+3/4, x+3/4'
'-z+1/2, -y, -x+1/2'
'x+1/2, y+1/2, z'
'-x+5/4, -y+3/4, z+1/2'
'-x+3/4, y+1, -z+3/4'
'x+1, -y+5/4, -z+1/4'
'z+1/2, x+1/2, y'
'z+1, -x+5/4, -y+1/4'
'-z+5/4, -x+3/4, y+1/2'
'-z+3/4, x+1, -y+3/4'
'y+1/2, z+1/2, x'
'-y+3/4, z+1, -x+3/4'
'y+1, -z+5/4, -x+1/4'
'-y+5/4, -z+3/4, x+1/2'
'y+5/4, x+3/4, -z+1/2'
'-y+1/2, -x+1/2, -z'
'y+3/4, -x+1, z+3/4'
'-y+1, x+5/4, z+1/4'
'x+5/4, z+3/4, -y+1/2'
'-x+1, z+5/4, y+1/4'
'-x+1/2, -z+1/2, -y'
'x+3/4, -z+1, y+3/4'
'z+5/4, y+3/4, -x+1/2'
'z+3/4, -y+1, x+3/4'
'-z+1, y+5/4, x+1/4'
'-z+1/2, -y+1/2, -x'
'-x, -y, -z'
'x-3/4, y-1/4, -z-1/2'
'x-1/4, -y-1/2, z-3/4'
'-x-1/2, y-3/4, z-1/4'
'-z, -x, -y'
'-z-1/2, x-3/4, y-1/4'
'z-3/4, x-1/4, -y-1/2'
'z-1/4, -x-1/2, y-3/4'
'-y, -z, -x'
'y-1/4, -z-1/2, x-3/4'
'-y-1/2, z-3/4, x-1/4'
'y-3/4, z-1/4, -x-1/2'
'-y-3/4, -x-1/4, z-1/2'
'y, x, z'
'-y-1/4, x-1/2, -z-3/4'
'y-1/2, -x-3/4, -z-1/4'
'-x-3/4, -z-1/4, y-1/2'
'x-1/2, -z-3/4, -y-1/4'
'x, z, y'
'-x-1/4, z-1/2, -y-3/4'
'-z-3/4, -y-1/4, x-1/2'
'-z-1/4, y-1/2, -x-3/4'
'z-1/2, -y-3/4, -x-1/4'
'z, y, x'
'-x, -y+1/2, -z+1/2'
'x-3/4, y+1/4, -z'
'x-1/4, -y, z-1/4'
'-x-1/2, y-1/4, z+1/4'
'-z, -x+1/2, -y+1/2'
'-z-1/2, x-1/4, y+1/4'
'z-3/4, x+1/4, -y'
'z-1/4, -x, y-1/4'
'-y, -z+1/2, -x+1/2'
'y-1/4, -z, x-1/4'
'-y-1/2, z-1/4, x+1/4'
'y-3/4, z+1/4, -x'
'-y-3/4, -x+1/4, z'
'y, x+1/2, z+1/2'
'-y-1/4, x, -z-1/4'
'y-1/2, -x-1/4, -z+1/4'
'-x-3/4, -z+1/4, y'
'x-1/2, -z-1/4, -y+1/4'
'x, z+1/2, y+1/2'
'-x-1/4, z, -y-1/4'
'-z-3/4, -y+1/4, x'
'-z-1/4, y, -x-1/4'
'z-1/2, -y-1/4, -x+1/4'
'z, y+1/2, x+1/2'
'-x+1/2, -y, -z+1/2'
'x-1/4, y-1/4, -z'
'x+1/4, -y-1/2, z-1/4'
'-x, y-3/4, z+1/4'
'-z+1/2, -x, -y+1/2'
'-z, x-3/4, y+1/4'
'z-1/4, x-1/4, -y'
'z+1/4, -x-1/2, y-1/4'
'-y+1/2, -z, -x+1/2'
'y+1/4, -z-1/2, x-1/4'
'-y, z-3/4, x+1/4'
'y-1/4, z-1/4, -x'
'-y-1/4, -x-1/4, z'
'y+1/2, x, z+1/2'
'-y+1/4, x-1/2, -z-1/4'
'y, -x-3/4, -z+1/4'
'-x-1/4, -z-1/4, y'
'x, -z-3/4, -y+1/4'
'x+1/2, z, y+1/2'
'-x+1/4, z-1/2, -y-1/4'
'-z-1/4, -y-1/4, x'
'-z+1/4, y-1/2, -x-1/4'
'z, -y-3/4, -x+1/4'
'z+1/2, y, x+1/2'
'-x+1/2, -y+1/2, -z'
'x-1/4, y+1/4, -z-1/2'
'x+1/4, -y, z-3/4'
'-x, y-1/4, z-1/4'
'-z+1/2, -x+1/2, -y'
'-z, x-1/4, y-1/4'
'z-1/4, x+1/4, -y-1/2'
'z+1/4, -x, y-3/4'
'-y+1/2, -z+1/2, -x'
'y+1/4, -z, x-3/4'
'-y, z-1/4, x-1/4'
'y-1/4, z+1/4, -x-1/2'
'-y-1/4, -x+1/4, z-1/2'
'y+1/2, x+1/2, z'
'-y+1/4, x, -z-3/4'
'y, -x-1/4, -z-1/4'
'-x-1/4, -z+1/4, y-1/2'
'x, -z-1/4, -y-1/4'
'x+1/2, z+1/2, y'
'-x+1/4, z, -y-3/4'
'-z-1/4, -y+1/4, x-1/2'
'-z+1/4, y, -x-3/4'
'z, -y-1/4, -x-1/4'
'z+1/2, y+1/2, x'
loop_
_atom_site_label
_atom_site_type_symbol
_atom_site_fract_x
_atom_site_fract_y
_atom_site_fract_z
_atom_site_U_iso_or_equiv
_atom_site_adp_type
_atom_site_occupancy
_atom_site_site_symmetry_order
_atom_site_calc_flag
_atom_site_refinement_flags_posn
_atom_site_refinement_flags_adp
_atom_site_refinement_flags_occupancy
As1 As 0.25861(5) 0.25861(5) 0.25861(5) 0.0098(3) Uani 1 6 d S T P
O1 O 0.3750 0.3750 0.1840(4) 0.0104(8) Uani 1 4 d S T P
loop_
_atom_site_aniso_label
_atom_site_aniso_U_11
_atom_site_aniso_U_22
_atom_site_aniso_U_33
_atom_site_aniso_U_23
_atom_site_aniso_U_13
_atom_site_aniso_U_12
As1 0.0098(3) 0.0098(3) 0.0098(3) -0.00059(13) -0.00059(13) -0.00059(13)
O1 0.0109(11) 0.0109(11) 0.0092(16) 0.000 0.000 -0.0018(13)
loop_
_atom_type_symbol
_atom_type_description
_atom_type_scat_dispersion_real
_atom_type_scat_dispersion_imag
_atom_type_scat_source
O O 0.0020 0.0020 'International Tables Vol C Tables 4.2.6.8 and 6.1.1.4'
As As 0.3110 0.7990 'International Tables Vol C Tables 4.2.6.8 and 6.1.1.4'
loop_
_geom_angle_atom_site_label_1
_geom_angle_atom_site_label_2
_geom_angle_atom_site_label_3
_geom_angle
_geom_angle_site_symmetry_1
_geom_angle_site_symmetry_3
O1 As1 O1 96.73(15) . 9
O1 As1 O1 96.73(15) . 5
O1 As1 O1 96.73(15) 9 5
As1 O1 As1 131.2(2) . 26_554
loop_
_geom_bond_atom_site_label_1
_geom_bond_atom_site_label_2
_geom_bond_distance
_geom_bond_site_symmetry_2
As1 O1 1.7949(17) .
As1 O1 1.7949(17) 9
As1 O1 1.7949(17) 5
O1 As1 1.7950(17) 26_554
