#------------------------------------------------------------------------------
#$Date: 2015-09-04 08:12:49 +0300 (Fri, 04 Sep 2015) $
#$Revision: 153928 $
#$URL: svn://www.crystallography.net/cod/cif/4/51/35/4513588.cif $
#------------------------------------------------------------------------------
#
# This file is available in the Crystallography Open Database (COD),
# http://www.crystallography.net/
#
# All data on this site have been placed in the public domain by the
# contributors.
#
data_4513588
loop_
_publ_author_name
'Gu\'nka, Piotr A.'
'Dziubek, Kamil F.'
'G\/ladysiak, Andrzej'
'Dranka, Maciej'
'Piechota, Jacek'
'Hanfland, Michael'
'Katrusiak, Andrzej'
'Zachara, Janusz'
_publ_section_title
;
 Compressed Arsenolite As4O6and Its Helium Clathrate As4O6&#x00B7;2He
;
_journal_issue                   8
_journal_name_full               'Crystal Growth &amp; Design'
_journal_page_first              3740
_journal_paper_doi               10.1021/acs.cgd.5b00390
_journal_volume                  15
_journal_year                    2015
_chemical_formula_moiety         '2(As2 O3)'
_chemical_formula_sum            'As4 O6'
_chemical_formula_weight         395.68
_space_group_crystal_system      cubic
_space_group_IT_number           227
_space_group_name_Hall           '-F 4vw 2vw 3'
_space_group_name_H-M_alt        'F d -3 m'
_symmetry_space_group_name_Hall  '-F 4vw 2vw 3'
_symmetry_space_group_name_H-M   'F d -3 m :2'
_atom_sites_solution_primary     direct
_audit_creation_date             2015-01-22
_audit_creation_method
;
Olex2 1.2-beta
(compiled 2015.01.19 svn.r3143 for OlexSys, GUI svn.r4992)
;
_cell_angle_alpha                90
_cell_angle_beta                 90
_cell_angle_gamma                90
_cell_formula_units_Z            8
_cell_length_a                   10.0509(3)
_cell_length_b                   10.0509(3)
_cell_length_c                   10.0509(3)
_cell_measurement_pressure       1.013e7(11)
_cell_measurement_reflns_used    354
_cell_measurement_temperature    293(2)
_cell_measurement_theta_max      19.2640
_cell_measurement_theta_min      2.0390
_cell_volume                     1015.35(5)
_computing_cell_refinement
;
CrysAlisPro, Agilent Technologies,
Version 1.171.37.35 (release 13-08-2014 CrysAlis171 .NET)
(compiled Aug 13 2014,18:06:01)
;
_computing_data_collection
;
CrysAlisPro, Agilent Technologies,
Version 1.171.37.35 (release 13-08-2014 CrysAlis171 .NET)
(compiled Aug 13 2014,18:06:01)
;
_computing_data_reduction
;
CrysAlisPro, Agilent Technologies,
Version 1.171.37.35 (release 13-08-2014 CrysAlis171 .NET)
(compiled Aug 13 2014,18:06:01)
;
_computing_molecular_graphics    'Olex2 (Dolomanov et al., 2009)'
_computing_publication_material  'Olex2 (Dolomanov et al., 2009)'
_computing_structure_refinement  'ShelXL (Sheldrick, 2008)'
_computing_structure_solution    'ShelXT (Sheldrick, 2015)'
_diffrn_ambient_environment      He
_diffrn_ambient_pressure         1.013e7(11)
_diffrn_ambient_temperature      293(2)
_diffrn_detector                 'CCD plate'
_diffrn_measured_fraction_theta_full 0.873
_diffrn_measured_fraction_theta_max 0.731
_diffrn_measurement_details
;
  1 phi    148.00  212.00   0.5000    1.0000
omega____ theta____ kappa____ phi______ frames
   0.0000    0.0000    0.0000     -     128
;
_diffrn_measurement_device       'abstract diffractometer'
_diffrn_measurement_device_type
'MAR-CrysAlisPro-abstract goniometer: imported MAR images'
_diffrn_measurement_method       '\p scans'
_diffrn_orient_matrix_UB_11      0.0333581000
_diffrn_orient_matrix_UB_12      0.0242317000
_diffrn_orient_matrix_UB_13      -0.0007916000
_diffrn_orient_matrix_UB_21      0.0161680000
_diffrn_orient_matrix_UB_22      -0.0231709000
_diffrn_orient_matrix_UB_23      -0.0299811000
_diffrn_orient_matrix_UB_31      -0.0180605000
_diffrn_orient_matrix_UB_32      0.0239326000
_diffrn_orient_matrix_UB_33      -0.0282824000
_diffrn_radiation_monochromator  synchrotron
_diffrn_radiation_probe          x-ray
_diffrn_radiation_wavelength     0.41427
_diffrn_reflns_av_R_equivalents  0.0266
_diffrn_reflns_av_unetI/netI     0.0182
_diffrn_reflns_laue_measured_fraction_full 0.873
_diffrn_reflns_laue_measured_fraction_max 0.731
_diffrn_reflns_limit_h_max       10
_diffrn_reflns_limit_h_min       -11
_diffrn_reflns_limit_k_max       12
_diffrn_reflns_limit_k_min       -14
_diffrn_reflns_limit_l_max       15
_diffrn_reflns_limit_l_min       -16
_diffrn_reflns_number            474
_diffrn_reflns_point_group_measured_fraction_full 0.873
_diffrn_reflns_point_group_measured_fraction_max 0.731
_diffrn_reflns_theta_full        14.392
_diffrn_reflns_theta_max         19.253
_diffrn_reflns_theta_min         2.046
_diffrn_source                   synchrotron
_exptl_absorpt_coefficient_mu    5.981
_exptl_absorpt_correction_T_max  1.00000
_exptl_absorpt_correction_T_min  0.75607
_exptl_absorpt_correction_type   multi-scan
_exptl_absorpt_process_details
;
CrysAlisPro, Agilent Technologies,
Version 1.171.37.35 (release 13-08-2014 CrysAlis171 .NET)
(compiled Aug 13 2014,18:06:01)
Empirical absorption correction using spherical harmonics,
 implemented in SCALE3 ABSPACK scaling algorithm.
;
_exptl_crystal_density_diffrn    5.177
_exptl_crystal_description       block
_exptl_crystal_F_000             1440
_exptl_crystal_size_max          0.065
_exptl_crystal_size_mid          0.04
_exptl_crystal_size_min          0.02
_refine_diff_density_max         0.496
_refine_diff_density_min         -0.459
_refine_diff_density_rms         0.131
_refine_ls_extinction_method     none
_refine_ls_goodness_of_fit_ref   1.132
_refine_ls_hydrogen_treatment    undef
_refine_ls_matrix_type           full
_refine_ls_number_parameters     8
_refine_ls_number_reflns         95
_refine_ls_number_restraints     0
_refine_ls_restrained_S_all      1.132
_refine_ls_R_factor_all          0.0263
_refine_ls_R_factor_gt           0.0252
_refine_ls_shift/su_max          0.000
_refine_ls_shift/su_mean         0.000
_refine_ls_structure_factor_coef Fsqd
_refine_ls_weighting_details
'w=1/[\s^2^(Fo^2^)+(0.0300P)^2^+16.8810P] where P=(Fo^2^+2Fc^2^)/3'
_refine_ls_weighting_scheme      calc
_refine_ls_wR_factor_gt          0.0622
_refine_ls_wR_factor_ref         0.0629
_reflns_Friedel_coverage         0.000
_reflns_number_gt                90
_reflns_number_total             95
_reflns_threshold_expression     'I > 2\s(I)'
_cod_data_source_file            cg5b00390_si_002.cif
_cod_data_source_block           marseno_028
_cod_original_cell_volume        1015.35(9)
_cod_database_code               4513588
_chemical_oxdiff_formula         'As4 O6'
_shelx_space_group_comment
;
The symmetry employed for this shelxl refinement is uniquely defined
by the following loop, which should always be used as a source of
symmetry information in preference to the above space-group names.
They are only intended as comments.
;
_olex2_refinement_description
;
;
_shelx_res_file
;
    marseno_028.res created by SHELXL-2014/7

TITL marseno_028_a.res in Fd-3m
REM Old TITL marseno_028 in Fd-3m #227
CELL 0.41427 10.050907 10.050907 10.050907 90 90 90
ZERR 8 0.000311 0.000311 0.000311 0 0 0
LATT 4
SYMM 0.75-X,0.25-Y,0.5+Z
SYMM 0.25-X,0.5+Y,0.75-Z
SYMM 0.5+X,0.75-Y,0.25-Z
SYMM +Z,+X,+Y
SYMM 0.5+Z,0.75-X,0.25-Y
SYMM 0.75-Z,0.25-X,0.5+Y
SYMM 0.25-Z,0.5+X,0.75-Y
SYMM +Y,+Z,+X
SYMM 0.25-Y,0.5+Z,0.75-X
SYMM 0.5+Y,0.75-Z,0.25-X
SYMM 0.75-Y,0.25-Z,0.5+X
SYMM 0.75+Y,0.25+X,0.5-Z
SYMM -Y,-X,-Z
SYMM 0.25+Y,0.5-X,0.75+Z
SYMM 0.5-Y,0.75+X,0.25+Z
SYMM 0.75+X,0.25+Z,0.5-Y
SYMM 0.5-X,0.75+Z,0.25+Y
SYMM -X,-Z,-Y
SYMM 0.25+X,0.5-Z,0.75+Y
SYMM 0.75+Z,0.25+Y,0.5-X
SYMM 0.25+Z,0.5-Y,0.75+X
SYMM 0.5-Z,0.75+Y,0.25+X
SYMM -Z,-Y,-X
SFAC O As
DISP As 0.311 0.799 1882.762
DISP O 0.002 0.002 10.067
UNIT 48 32

L.S. 10
PLAN  20
BOND $H
LIST 6
fmap 2
acta
OMIT 0 10 14
REM <olex2.extras>
REM <HklSrc "%.\\marseno_028.hkl">
REM </olex2.extras>

WGHT    0.030000   16.880999
FVAR       1.50186
AS1   2    0.260141    0.260141    0.260141    10.16667    0.01107    0.01107 =
         0.01107   -0.00059   -0.00059   -0.00059
O1    1    0.375000    0.375000    0.186121    10.25000    0.01191    0.01191 =
         0.00968    0.00000    0.00000    0.00007
HKLF 4

REM  marseno_028_a.res in Fd-3m
REM R1 =  0.0252 for      90 Fo > 4sig(Fo)  and  0.0263 for all      95 data
REM      8 parameters refined using      0 restraints

END

WGHT      0.0303     16.1322

REM Highest difference peak  0.496,  deepest hole -0.459,  1-sigma level  0.131
Q1    1   0.1971  0.1971  0.1971  10.16667  0.05    0.50
Q2    1   0.2673  0.3247  0.2673  10.50000  0.05    0.47
Q3    1   0.3919  0.4414  0.1892  11.00000  0.05    0.45
Q4    1   0.1667  0.2674  0.2674  10.50000  0.05    0.43
Q5    1   0.1862  0.2896  0.2537  11.00000  0.05    0.37
Q6    1   0.4462  0.3454  0.2043  11.00000  0.05    0.36
Q7    1   0.3010  0.4490  0.1707  10.50000  0.05    0.34
Q8    1   0.3750  0.3750  0.2352  10.25000  0.05    0.34
Q9    1   0.2185  0.1250  0.1250  10.25000  0.05    0.34
Q10   1   0.3012  0.4488  0.3012  10.16667  0.05    0.30
Q11   1   0.4178  0.4178  0.1583  10.50000  0.05    0.30
Q12   1   0.4206  0.3294  0.1137  10.50000  0.05    0.28
Q13   1   0.2317  0.0816  0.1956  11.00000  0.05    0.24
Q14   1   0.5000  0.4355  0.0645  10.50000  0.05    0.23
Q15   1   0.2185  0.1791  0.2642  11.00000  0.05    0.22
Q16   1   0.1691  0.1691  0.2567  10.50000  0.05    0.21
Q17   1   0.5000  0.5000  0.0000  10.08333  0.05    0.20
Q18   1   0.0960  0.2464  0.1974  11.00000  0.05    0.19
Q19   1   0.4361  0.4361  0.0212  10.50000  0.05    0.18
Q20   1   0.3588  0.3912  0.0675  10.50000  0.05    0.17
;
_shelx_res_checksum              9091
_shelx_hkl_file
;
  -1   1  -1 86464.5 403.644   1
  -1   1   1 86685.9 906.238   1
   0   2   2 2457.38 189.114   1
   2  -2   0 2431.15 157.738   1
  -2   2   0 2115.01 154.985   1
   0  -2  -2 2218.96 198.414   1
  -1   1  -3 530.313 61.4948   1
  -1   3   1 502.411 100.370   1
   1  -3  -1 478.988 94.9805   1
  -1   1   3 868.028 112.013   1
   1  -1   3 622.102 67.3855   1
  -1  -1  -3 888.764 118.493   1
   1  -1  -3 698.058 107.264   1
   3  -3  -1 95029.9 1376.89   1
  -3   3  -1 106059. 1181.61   1
  -1   3   3 108692. 1678.61   1
   3  -3   1 100934. 1107.57   1
   1  -3  -3 101446. 1651.78   1
  -3   3   1 101754. 1482.19   1
  -3   1   3 105433. 1628.19   1
   3  -3  -3 9651.39 508.651   1
  -3   3   3 9304.99 524.211   1
  -3   3  -3 8280.30 189.296   1
  -2   4   0 30.0680 7.14517   1
   2   0  -4 20.8231 14.3457   1
   0   2   4 27.4934 15.1263   1
  -2   4   2 33724.1 947.175   1
   2  -4   2 33003.2 589.497   1
  -2   2   4 33611.4 965.818   1
   2  -2  -4 32248.2 918.569   1
   2  -4  -2 34018.6 952.258   1
   4  -2  -4 4170.50 374.679   1
   4  -4  -2 4911.17 371.223   1
  -2   4   4 4723.10 405.406   1
  -4   4   2 4527.10 374.389   1
   2  -4  -4 4163.75 383.196   1
  -4   2   4 3940.70 384.327   1
  -4   4  -2 4343.30 249.338   1
  -1   1   5 11081.7 546.003   1
   1  -1   5 12316.8 433.278   1
  -1   1  -5 12117.5 434.547   1
  -1  -1  -5 12851.9 590.529   1
   1   1   5 11602.5 501.907   1
   1  -1  -5 11414.9 554.831   1
  -1  -1   5 11548.7 496.577   1
  -3   5  -1 14766.1 521.800   1
   1  -3  -5 14950.6 725.970   1
  -1   5   3 13349.5 649.503   1
  -3   1   5 14556.7 698.512   1
   3  -5   1 15064.5 537.648   1
   3  -1  -5 15300.3 696.071   1
  -3   5   1 14393.2 623.687   1
  -1   3   5 14065.7 688.709   1
   3  -5  -1 14739.5 640.474   1
   1  -3   5 14525.0 382.990   1
   1  -5  -3 15207.9 768.151   1
  -5   3   3 599.561 149.437   1
   3  -5   3 913.696 87.9918   1
   3  -3  -5 715.666 176.544   1
   3  -5  -3 842.733 178.142   1
   5  -3  -3 515.299 152.322   1
  -3   3   5 728.891 158.010   1
  -3   3  -5 525.639 35.7929   1
  -3   5   3 788.097 154.260   1
   5  -5  -1 181706. 2310.39   1
  -5   5   1 181749. 2464.48   1
  -5   5  -1 181939. 2102.29   1
  -1   5   5 177536. 2686.74   1
   5  -5   1 175542. 2132.35   1
  -5   5  -3 16202.9 496.642   1
   5  -5  -3 16112.2 793.410   1
  -5   5   3 16498.3 840.580   1
   3  -5  -5 16291.2 895.808   1
   5  -3  -5 15938.0 829.673   1
  -5   3   5 17343.0 955.558   1
  -3   5   5 16738.7 905.421   1
  -5   5   5 54092.1 1714.39   1
   5  -5  -5 54088.6 1632.01   1
   0   0   6 20.4970 13.9042   1
   0  -2   6 1358.80 162.033   1
   0  -2  -6 1212.37 201.047   1
   2  -6   0 1212.76 190.730   1
  -2   0   6 1218.06 196.341   1
   0   2   6 818.292 165.876   1
  -2   0  -6 1390.99 188.497   1
   2   0  -6 1251.53 188.100   1
   4  -6   0 29.7724 43.1568   1
   0  -4  -6 58.7716 99.1369   1
   0   4   6 25.3796 44.3899   1
   2  -4  -6 1691.15 287.301   1
   4  -6   2 1435.22 159.845   1
   2  -6  -4 1527.79 273.285   1
  -4   6  -2 1515.58 170.324   1
  -2   4   6 1559.38 262.048   1
   4  -6  -2 1638.20 246.975   1
  -4   2   6 1735.40 296.929   1
  -6   4   2 1430.16 249.129   1
   2  -4   6 1276.39 92.9186   1
  -4   6   2 1510.06 232.891   1
  -2   6   4 1482.70 242.565   1
   4  -2  -6 1917.39 285.147   1
  -4   6   4 2145.16 325.275   1
   4  -4  -6 2141.08 318.081   1
   4  -6  -4 2157.94 324.587   1
  -4   4   6 2207.11 315.614   1
   6  -4  -4 2381.36 359.756   1
  -6   4   4 2526.96 365.199   1
   6  -6   0 60533.8 1406.30   1
  -6   6   0 59776.3 1454.38   1
  -6   6  -4 536.851 91.6654   1
  -4   6   6 1031.64 211.068   1
   6  -6  -4 914.998 213.702   1
  -6   6   4 282.044 143.282   1
   4  -6  -6 807.740 238.439   1
  -6   4   6 281.926 149.937   1
   6  -4  -6 344.220 163.862   1
  -6   6   6 257337. 4215.03   1
   6  -6  -6 242404. 3849.37   1
  -1  -1   7 17920.5 767.937   1
  -1   1   7 16127.3 775.665   1
   1  -1   7 18644.0 690.681   1
  -1  -1  -7 17097.1 764.749   1
  -1   1  -7 16946.9 617.165   1
   1  -1  -7 16329.9 751.689   1
   1   1  -7 17908.7 726.225   1
   1   1   7 15935.1 710.939   1
  -1  -3  -7 39569.2 1425.81   1
   3  -7   1 35474.4 1020.49   1
   3  -7  -1 33807.3 1126.78   1
   1  -3   7 35751.5 806.812   1
   3  -1  -7 35102.4 1192.15   1
  -3   7   1 34639.3 1068.97   1
   1  -3  -7 38221.7 1332.33   1
  -1   3   7 35692.7 1289.79   1
  -3   1   7 36833.1 1324.04   1
   1   3   7 35196.1 1147.04   1
  -3   1  -7 33590.3 906.175   1
   3  -3  -7 164404. 2742.14   1
   3  -7   3 168531. 1831.69   1
  -3   7   3 166833. 2686.83   1
  -3   3   7 167168. 2879.79   1
   3  -7  -3 171704. 2889.47   1
  -3   3  -7 164711. 1342.67   1
  -5   7  -1 4606.02 372.462   1
  -7   5   1 4154.24 443.025   1
  -5   7   1 4172.80 405.767   1
  -7   5  -1 3656.63 355.043   1
   1  -5  -7 3815.80 473.063   1
   5  -7   1 3973.61 325.806   1
   1  -5   7 4098.99 258.698   1
   5  -7  -1 3762.63 378.574   1
  -1   5   7 3498.93 419.684   1
  -5   7  -3 13058.3 502.987   1
  -3   5   7 12512.4 868.245   1
  -5   7   3 13605.6 844.927   1
   5  -7  -3 12702.4 783.359   1
  -3   7   5 12954.2 842.260   1
   5  -7   3 13245.7 512.515   1
   3  -7   5 10881.2 326.594   1
   5  -3  -7 13799.6 874.442   1
   3  -7  -5 13022.7 893.076   1
  -5   3   7 14801.5 989.919   1
  -7   5   3 13595.9 899.715   1
   3  -5  -7 13180.0 899.153   1
  -7   5   5 7058.95 710.424   1
  -5   5   7 5921.22 628.455   1
  -5   7   5 6732.63 655.294   1
   5  -5  -7 6997.21 653.909   1
   7  -5  -5 7528.89 710.599   1
   5  -7  -5 6479.06 610.704   1
  -1   7   7 61699.5 1886.19   1
  -7   7  -1 66387.0 1561.60   1
   1  -7  -7 61009.0 2203.93   1
   7  -7  -1 70199.0 1742.68   1
  -7   7   1 69158.4 1832.58   1
  -3   7   7 66874.8 2117.53   1
   3  -7  -7 66693.1 2261.79   1
  -7   7   3 68001.7 2000.62   1
   7  -7  -3 66779.8 1885.34   1
  -7   7  -3 64550.7 1366.66   1
  -7   7  -5 14812.4 465.299   1
   5  -7  -7 15815.4 1074.25   1
  -5   7   7 18162.5 1208.85   1
  -7   7   5 16424.7 1096.47   1
   7  -7  -5 17775.5 1064.63   1
  -7   5   7 17713.0 1209.20   1
   7  -5  -7 17505.6 1078.37   1
   7  -7  -7 106564. 2829.96   1
   0   2   8 34.1080 69.9608   1
   2   0  -8 60.3370 73.9350   1
   0  -2   8 6.14686 39.2717   1
   0  -2  -8 5.71363 35.9334   1
   2  -2   8 15724.8 583.055   1
  -2  -2  -8 14422.0 860.557   1
  -2   2  -8 17250.0 611.667   1
   2  -8  -2 15103.9 927.634   1
  -2   2   8 14626.3 864.588   1
   2  -2  -8 15949.7 850.074   1
  -2   4   8 7843.61 679.626   1
   2  -4   8 7545.49 343.784   1
   4  -2  -8 8363.04 656.504   1
   2  -8  -4 6552.89 688.992   1
  -4   8   2 7586.68 580.271   1
   4  -8  -2 7536.48 615.268   1
   4  -8   2 7739.29 466.444   1
  -4   2   8 7287.66 680.091   1
  -2   8   4 7235.06 599.800   1
   2  -4  -8 7842.89 707.802   1
  -4   8   4 258643. 3793.93   1
   4  -8  -4 265615. 4100.08   1
  -4   4   8 259544. 4184.02   1
   4  -8   4 262721. 2213.35   1
  -8   6   0 53.2587 41.1437   1
  -2   6   8 5102.65 566.834   1
   6  -8  -2 4920.15 474.259   1
  -6   8   2 5690.71 556.656   1
  -2   8   6 5001.28 537.577   1
  -6   8  -2 5267.43 404.446   1
   2  -6   8 3949.25 198.113   1
   2  -8  -6 4712.99 593.536   1
   6  -8   2 4778.89 381.925   1
   2  -6  -8 4655.84 591.030   1
  -8   6   2 4988.67 569.316   1
  -4   8   6 5032.07 576.728   1
   6  -8  -4 4691.85 527.492   1
  -6   4   8 5036.60 648.832   1
  -4   6   8 5054.30 618.404   1
  -6   8   4 5042.69 585.539   1
  -6   4  -8 2527.87 154.523   1
   6  -4  -8 5427.26 609.782   1
   4  -6  -8 3840.01 520.405   1
  -8   6   4 5059.25 618.476   1
   4  -8  -6 4580.21 607.778   1
  -8   6  -4 3804.23 328.954   1
  -6   6   8 4506.64 667.970   1
  -6   8   6 6579.90 722.716   1
   6  -6  -8 5351.12 613.522   1
  -8   6  -6 4319.78 259.386   1
  -8   6   6 6106.91 754.298   1
   6  -8  -6 5662.96 629.584   1
   8  -6  -6 6145.20 706.142   1
  -8   8   0 150231. 2769.56   1
  -8   8  -2 16042.9 819.121   1
  -2   8   8 15989.6 1087.46   1
  -8   8   2 17368.1 1065.17   1
   2  -8  -8 14872.0 1203.60   1
   8  -8  -2 16578.8 954.460   1
  -8   8  -4 202918. 2418.33   1
  -8   8   4 206641. 4015.09   1
   8  -8  -4 202773. 3706.32   1
   4  -8  -8 204626. 4467.30   1
   8  -8  -6 10651.0 922.031   1
   1  -1   9 70136.5 1563.99   1
   1  -1  -9 67519.1 1704.31   1
  -1   1  -9 74903.1 1576.70   1
  -1   1   9 68949.2 1886.14   1
  -1  -1   9 69653.1 1706.04   1
  -1  -1  -9 70332.6 1794.88   1
   1   1  -9 67330.3 1628.30   1
   1   1   9 71384.4 1720.39   1
  -1   3   9 32967.9 1373.24   1
  -3  -1  -9 28803.5 1191.14   1
   3  -9  -1 27223.5 1220.09   1
   1   3   9 30741.3 1209.83   1
  -1  -3  -9 31215.7 1350.75   1
   3  -9   1 28356.3 1105.69   1
   3  -1  -9 33999.5 1319.50   1
  -3   1   9 33734.5 1408.92   1
  -3   1  -9 29924.5 1005.66   1
   1  -3   9 32074.8 972.048   1
   1  -3  -9 30902.9 1370.76   1
  -1  -3   9 33130.9 1164.68   1
  -3  -1   9 33773.8 1387.44   1
   3  -3  -9 4.99468 42.1435   1
   3  -9   3 193.846 82.5700   1
  -3   3   9 142.342 137.842   1
   3  -9  -3 94.7249 75.8621   1
  -3   3  -9 8.77595 28.0262   1
  -5   9   1 60535.2 1675.60   1
  -1   5   9 58597.9 1905.77   1
   1  -5   9 59734.6 1165.27   1
   1  -5  -9 54794.5 1996.14   1
   5  -9  -1 58264.7 1720.68   1
   5  -9   1 59011.6 1526.82   1
  -5   9  -1 60854.0 1450.72   1
   3  -5  -9 29089.5 1447.25   1
  -3   9   5 27443.0 1283.87   1
   5  -9   3 30595.9 900.538   1
  -5   9   3 29332.1 1290.14   1
  -3   5   9 31324.6 1505.10   1
   3  -9   5 30126.7 829.343   1
   3  -9  -5 27986.7 1476.94   1
  -5   3   9 32412.6 1573.23   1
   5  -3  -9 32556.3 1480.55   1
  -5   3  -9 26331.3 745.636   1
   5  -9  -3 30741.8 1415.05   1
  -5   9   5 113488. 2827.50   1
  -5   5   9 118507. 3153.07   1
   5  -5  -9 109857. 2833.71   1
   5  -9  -5 116326. 3049.03   1
  -7   9  -1 590.421 153.178   1
   7  -9   1 928.848 203.743   1
  -7   9   1 1245.01 239.141   1
   7  -9  -1 1237.01 249.195   1
   1  -7  -9 646.084 253.555   1
  -1   7   9 1035.09 281.659   1
  -9   7   1 927.937 239.916   1
   3  -7  -9 1410.22 357.582   1
  -7   9   3 1323.29 303.249   1
   7  -9  -3 2018.81 342.256   1
   3  -9   7 1227.20 106.355   1
   3  -9  -7 1541.40 375.428   1
  -9   7   3 1832.85 366.657   1
  -9   7  -3 1198.17 225.143   1
  -7   9  -3 1863.20 233.116   1
  -7   9   5 5687.14 694.543   1
   7  -9  -5 5109.99 610.981   1
   5  -9  -7 4517.62 637.164   1
  -9   7  -5 3157.57 282.102   1
  -9   9  -1 55299.9 1747.46   1
  -9   9   1 53109.0 1858.48   1
  -9   9  -3 39294.8 1251.41   1
  -9   9   3 37855.6 1742.13   1
   0   0 -10 27.8907 48.7786   1
   0   2  10 9798.80 731.996   1
   0  -2  10 8023.33 567.528   1
  -2   0  10 9529.78 730.403   1
   2   0 -10 9432.33 682.175   1
  -2   0 -10 8076.20 611.373   1
   0  -2 -10 8741.24 734.867   1
   2   0  10 8783.51 577.478   1
   2  -2  10 267914. 2825.54   1
   2  -2 -10 269569. 3972.94   1
  -2   2 -10 267507. 2803.08   1
  -2  -2 -10 259498. 3871.98   1
  -2  -2  10 265890. 3770.89   1
  -4   0  10 96.0785 114.236   1
   4 -10   0 146.538 89.9286   1
   0  -4  10 137.218 99.8112   1
  -2   4  10 1552.24 318.769   1
  -4   2 -10 1102.40 202.862   1
   4  -2 -10 984.880 250.089   1
   2  -4 -10 674.346 222.864   1
   4 -10   2 1252.83 228.315   1
  -4   2  10 1143.17 276.574   1
   4 -10  -2 1085.70 262.644   1
   2  -4  10 1667.71 191.059   1
   4  -4 -10 539.342 206.018   1
  -4   4  10 269.053 133.586   1
   4 -10   4 489.075 110.581   1
   4 -10  -4 540.866 211.268   1
  -4  10   4 783.998 227.298   1
   0  -6 -10 803.983 297.370   1
   6 -10   0 609.135 158.251   1
  -6  10   0 681.190 158.510   1
   6 -10  -2 147614. 2948.18   1
  -6  10   2 146505. 2903.03   1
  -2   6  10 141864. 3323.20   1
   6 -10   2 151826. 2280.90   1
   2  -6 -10 148382. 3696.61   1
  -6  10   4 23873.6 1311.43   1
   4  -6 -10 22898.6 1398.14   1
   6 -10  -4 22319.7 1269.11   1
   4 -10  -6 23104.7 1532.63   1
   6  -4 -10 24225.8 1394.61   1
   4 -10   6 19383.3 568.949   1
  -8  10   0 37.8051 52.7475   1
   8 -10   0 19.1280 40.0991   1
  -8  10   2 2.98169 54.3486   1
 -10   8  -4 1010.81 198.519   1
   8 -10  -4 1660.76 344.340   1
 -10  10   0 45171.4 1767.40   1
 -10  10  -2 58454.3 1752.71   1
 -10  10   2 56837.1 2234.83   1
   1   1  11 42313.7 1471.46   1
   1  -1  11 44707.9 1406.85   1
  -1   1  11 45179.0 1666.12   1
   1  -1 -11 44875.4 1574.81   1
  -1  -1  11 42145.9 1518.58   1
  -1   1 -11 46001.7 1367.18   1
   1   1 -11 48295.8 1645.94   1
  -1  -1 -11 44097.0 1595.34   1
   1   3  11 39212.8 1502.92   1
   1  -3 -11 37761.8 1617.33   1
  -1   3  11 41444.1 1691.50   1
   1  -3  11 40216.2 1214.57   1
  -3   1  11 40959.5 1708.57   1
  -3  -1 -11 40740.0 1509.48   1
  -1  -3  11 41661.8 1433.09   1
  -1  -3 -11 40942.7 1713.87   1
   3  -1 -11 42385.8 1629.86   1
  -3  -1  11 39249.8 1648.23   1
  -3   1 -11 38631.1 1273.79   1
  -3   3  11 55403.8 2173.30   1
   3  -3 -11 54755.6 1956.89   1
   5 -11   1 1169.17 257.582   1
   1  -5 -11 423.672 212.680   1
   1  -5  11 860.237 161.897   1
  -5   1 -11 816.989 228.544   1
  -1  -5 -11 923.082 319.250   1
  -1   5  11 715.393 258.270   1
   5 -11  -1 579.420 212.567   1
  -5  11   3 17418.1 1054.24   1
   3  -5 -11 19046.1 1292.87   1
  -5   3 -11 17278.4 632.503   1
   5  -3 -11 19728.9 1238.20   1
   5 -11  -3 18035.3 1222.33   1
   5 -11   3 17501.1 857.537   1
   5 -11   5 8676.47 458.073   1
   5 -11  -5 8734.97 943.229   1
  -7  11  -1 46792.6 1476.53   1
  -7  11   1 46998.5 1667.96   1
   7 -11  -1 46323.7 1607.15   1
   7 -11   1 47996.5 1488.84   1
   1  -7  11 43138.2 1063.52   1
  -7  11   3 62952.0 2134.06   1
   7 -11  -3 60658.2 2047.33   1
  -9  11  -1 798.111 210.117   1
   9 -11  -1 361.710 163.518   1
  -9  11   1 719.287 204.435   1
   9 -11  -3 1815.14 387.950   1
 -11  11  -1 13081.9 937.961   1
   0   0  12 99833.3 2428.74   1
   0   0 -12 102237. 2308.26   1
   2   0 -12 62.7833 27.8044   1
   0  -2  12 85.5163 79.3167   1
  -2   0  12 52.3417 106.948   1
  -2   0 -12 79.8947 83.2086   1
   0  -2 -12 19.1940 89.6054   1
   2  -2  12 3052.42 344.453   1
  -2   2  12 3182.65 497.249   1
   2  -2 -12 2953.71 436.544   1
  -2   2 -12 3613.84 366.468   1
  -2  -2  12 2778.39 404.322   1
  -2  -2 -12 2034.71 377.260   1
   0   4  12 133676. 3089.99   1
   0  -4  12 128484. 2407.84   1
  -4   0  12 132173. 3362.53   1
   0  -4 -12 131021. 3441.20   1
   2  -4  12 6367.40 448.615   1
   2  -4 -12 6150.07 724.982   1
  -4   2 -12 6865.70 492.523   1
   4  -2 -12 6943.24 709.358   1
   6 -12   0 60.5153 76.7093   1
   6 -12  -2 152.608 127.526   1
   6 -12   2 77.1383 45.8266   1
   6 -12   4 4430.36 390.960   1
  -8  12   0 57392.7 1809.80   1
   8 -12   0 58540.4 1810.81   1
   8 -12  -2 16400.3 1073.30   1
   8 -12   2 15199.0 856.388   1
 -10  12  -2 173.930 131.901   1
   1   1  13 42286.6 1589.84   1
   1  -1  13 39983.4 1455.14   1
  -1  -1 -13 38139.4 1568.40   1
  -1   1  13 43257.3 1829.76   1
  -1  -1  13 40947.3 1677.43   1
   1  -1 -13 41158.8 1622.33   1
  -1   1 -13 40629.9 1431.86   1
   1  -3  13 11956.9 746.798   1
   1  -3 -13 11647.9 961.580   1
  -3   1 -13 12015.0 750.630   1
  -3   1  13 10911.6 986.717   1
  -1  -3  13 12994.0 891.818   1
  -3  -1  13 10181.8 926.855   1
  -3  -1 -13 10738.5 878.497   1
   3  -1 -13 13138.1 1030.75   1
  -1  -3 -13 10807.2 1029.64   1
   1  -5  13 45528.9 1363.89   1
   5 -13  -1 43604.9 1859.16   1
  -5   1 -13 43573.4 1536.72   1
   5 -13  -3 24562.9 1570.70   1
   7 -13  -1 7979.34 745.240   1
   7 -13   1 7274.98 624.442   1
   7 -13   3 99.2357 54.5974   1
   9 -13  -1 35665.3 1595.25   1
   9 -13   1 32569.3 1413.03   1
   0   0 -14 13.6334 29.7016   1
  -2   0 -14 1918.60 331.803   1
   0  -2  14 2137.04 361.978   1
  -2   0  14 1433.98 352.799   1
   2   0 -14 2156.18 406.424   1
   0   2  14 958.608 258.527   1
   0  -2 -14 1769.02 350.919   1
  -2  -2  14 59646.6 2186.90   1
  -2  -2 -14 57802.6 2343.22   1
   0  -4  14 168.688 123.159   1
  -4   0 -14 88.7574 57.1122   1
  -4   2 -14 127.813 95.7414   1
   6 -14   0 14939.5 1117.55   1
   8 -14   0 22.8901 62.3355   1
  10 -14   0 3.36590 28.4003   1
   1   1  15 13096.1 971.411   1
   1  -1  15 12550.5 891.048   1
  -1  -1  15 13206.9 1051.21   1
  -1  -1 -15 14079.1 1049.06   1
   1  -1 -15 13149.2 1008.02   1
  -1   1 -15 14750.1 893.626   1
  -3  -1 -15 22975.2 1327.74   1
   1  -3  15 23148.8 1139.85   1
  -1  -3  15 25226.7 1385.69   1
  -3   1 -15 22085.5 1081.14   1
   0   0 -16 58423.6 2097.43   1
  -2   0 -16 197.984 130.378   1
   0   0   0    0.00    0.00   0
TITL marseno_028 in Fd-3m
REM Fd-3m (#227 in standard setting)
CELL 0.41427  10.050907  10.050907  10.050907  90.0000  90.0000  90.0000
ZERR    8.00   0.000311   0.000311   0.000311   0.0000   0.0000   0.0000
LATT  4
SYMM -x+3/4,-y+1/4, z+1/2
SYMM -x+1/4, y+1/2,-z+3/4
SYMM  x+1/2,-y+3/4,-z+1/4
SYMM  z, x, y
SYMM  z+1/2,-x+3/4,-y+1/4
SYMM -z+3/4,-x+1/4, y+1/2
SYMM -z+1/4, x+1/2,-y+3/4
SYMM  y, z, x
SYMM -y+1/4, z+1/2,-x+3/4
SYMM  y+1/2,-z+3/4,-x+1/4
SYMM -y+3/4,-z+1/4, x+1/2
SYMM  y+3/4, x+1/4,-z+1/2
SYMM -y,-x,-z
SYMM  y+1/4,-x+1/2, z+3/4
SYMM -y+1/2, x+3/4, z+1/4
SYMM  x+3/4, z+1/4,-y+1/2
SYMM -x+1/2, z+3/4, y+1/4
SYMM -x,-z,-y
SYMM  x+1/4,-z+1/2, y+3/4
SYMM  z+3/4, y+1/4,-x+1/2
SYMM  z+1/4,-y+1/2, x+3/4
SYMM -z+1/2, y+3/4, x+1/4
SYMM -z,-y,-x
SFAC O As
UNIT 48.00 32.00
TREF
HKLF 4
END
;
_shelx_hkl_checksum              28622
_shelx_shelxl_version_number     2014/7
loop_
_space_group_symop_operation_xyz
'x, y, z'
'-x+3/4, -y+1/4, z+1/2'
'-x+1/4, y+1/2, -z+3/4'
'x+1/2, -y+3/4, -z+1/4'
'z, x, y'
'z+1/2, -x+3/4, -y+1/4'
'-z+3/4, -x+1/4, y+1/2'
'-z+1/4, x+1/2, -y+3/4'
'y, z, x'
'-y+1/4, z+1/2, -x+3/4'
'y+1/2, -z+3/4, -x+1/4'
'-y+3/4, -z+1/4, x+1/2'
'y+3/4, x+1/4, -z+1/2'
'-y, -x, -z'
'y+1/4, -x+1/2, z+3/4'
'-y+1/2, x+3/4, z+1/4'
'x+3/4, z+1/4, -y+1/2'
'-x+1/2, z+3/4, y+1/4'
'-x, -z, -y'
'x+1/4, -z+1/2, y+3/4'
'z+3/4, y+1/4, -x+1/2'
'z+1/4, -y+1/2, x+3/4'
'-z+1/2, y+3/4, x+1/4'
'-z, -y, -x'
'x, y+1/2, z+1/2'
'-x+3/4, -y+3/4, z+1'
'-x+1/4, y+1, -z+5/4'
'x+1/2, -y+5/4, -z+3/4'
'z, x+1/2, y+1/2'
'z+1/2, -x+5/4, -y+3/4'
'-z+3/4, -x+3/4, y+1'
'-z+1/4, x+1, -y+5/4'
'y, z+1/2, x+1/2'
'-y+1/4, z+1, -x+5/4'
'y+1/2, -z+5/4, -x+3/4'
'-y+3/4, -z+3/4, x+1'
'y+3/4, x+3/4, -z+1'
'-y, -x+1/2, -z+1/2'
'y+1/4, -x+1, z+5/4'
'-y+1/2, x+5/4, z+3/4'
'x+3/4, z+3/4, -y+1'
'-x+1/2, z+5/4, y+3/4'
'-x, -z+1/2, -y+1/2'
'x+1/4, -z+1, y+5/4'
'z+3/4, y+3/4, -x+1'
'z+1/4, -y+1, x+5/4'
'-z+1/2, y+5/4, x+3/4'
'-z, -y+1/2, -x+1/2'
'x+1/2, y, z+1/2'
'-x+5/4, -y+1/4, z+1'
'-x+3/4, y+1/2, -z+5/4'
'x+1, -y+3/4, -z+3/4'
'z+1/2, x, y+1/2'
'z+1, -x+3/4, -y+3/4'
'-z+5/4, -x+1/4, y+1'
'-z+3/4, x+1/2, -y+5/4'
'y+1/2, z, x+1/2'
'-y+3/4, z+1/2, -x+5/4'
'y+1, -z+3/4, -x+3/4'
'-y+5/4, -z+1/4, x+1'
'y+5/4, x+1/4, -z+1'
'-y+1/2, -x, -z+1/2'
'y+3/4, -x+1/2, z+5/4'
'-y+1, x+3/4, z+3/4'
'x+5/4, z+1/4, -y+1'
'-x+1, z+3/4, y+3/4'
'-x+1/2, -z, -y+1/2'
'x+3/4, -z+1/2, y+5/4'
'z+5/4, y+1/4, -x+1'
'z+3/4, -y+1/2, x+5/4'
'-z+1, y+3/4, x+3/4'
'-z+1/2, -y, -x+1/2'
'x+1/2, y+1/2, z'
'-x+5/4, -y+3/4, z+1/2'
'-x+3/4, y+1, -z+3/4'
'x+1, -y+5/4, -z+1/4'
'z+1/2, x+1/2, y'
'z+1, -x+5/4, -y+1/4'
'-z+5/4, -x+3/4, y+1/2'
'-z+3/4, x+1, -y+3/4'
'y+1/2, z+1/2, x'
'-y+3/4, z+1, -x+3/4'
'y+1, -z+5/4, -x+1/4'
'-y+5/4, -z+3/4, x+1/2'
'y+5/4, x+3/4, -z+1/2'
'-y+1/2, -x+1/2, -z'
'y+3/4, -x+1, z+3/4'
'-y+1, x+5/4, z+1/4'
'x+5/4, z+3/4, -y+1/2'
'-x+1, z+5/4, y+1/4'
'-x+1/2, -z+1/2, -y'
'x+3/4, -z+1, y+3/4'
'z+5/4, y+3/4, -x+1/2'
'z+3/4, -y+1, x+3/4'
'-z+1, y+5/4, x+1/4'
'-z+1/2, -y+1/2, -x'
'-x, -y, -z'
'x-3/4, y-1/4, -z-1/2'
'x-1/4, -y-1/2, z-3/4'
'-x-1/2, y-3/4, z-1/4'
'-z, -x, -y'
'-z-1/2, x-3/4, y-1/4'
'z-3/4, x-1/4, -y-1/2'
'z-1/4, -x-1/2, y-3/4'
'-y, -z, -x'
'y-1/4, -z-1/2, x-3/4'
'-y-1/2, z-3/4, x-1/4'
'y-3/4, z-1/4, -x-1/2'
'-y-3/4, -x-1/4, z-1/2'
'y, x, z'
'-y-1/4, x-1/2, -z-3/4'
'y-1/2, -x-3/4, -z-1/4'
'-x-3/4, -z-1/4, y-1/2'
'x-1/2, -z-3/4, -y-1/4'
'x, z, y'
'-x-1/4, z-1/2, -y-3/4'
'-z-3/4, -y-1/4, x-1/2'
'-z-1/4, y-1/2, -x-3/4'
'z-1/2, -y-3/4, -x-1/4'
'z, y, x'
'-x, -y+1/2, -z+1/2'
'x-3/4, y+1/4, -z'
'x-1/4, -y, z-1/4'
'-x-1/2, y-1/4, z+1/4'
'-z, -x+1/2, -y+1/2'
'-z-1/2, x-1/4, y+1/4'
'z-3/4, x+1/4, -y'
'z-1/4, -x, y-1/4'
'-y, -z+1/2, -x+1/2'
'y-1/4, -z, x-1/4'
'-y-1/2, z-1/4, x+1/4'
'y-3/4, z+1/4, -x'
'-y-3/4, -x+1/4, z'
'y, x+1/2, z+1/2'
'-y-1/4, x, -z-1/4'
'y-1/2, -x-1/4, -z+1/4'
'-x-3/4, -z+1/4, y'
'x-1/2, -z-1/4, -y+1/4'
'x, z+1/2, y+1/2'
'-x-1/4, z, -y-1/4'
'-z-3/4, -y+1/4, x'
'-z-1/4, y, -x-1/4'
'z-1/2, -y-1/4, -x+1/4'
'z, y+1/2, x+1/2'
'-x+1/2, -y, -z+1/2'
'x-1/4, y-1/4, -z'
'x+1/4, -y-1/2, z-1/4'
'-x, y-3/4, z+1/4'
'-z+1/2, -x, -y+1/2'
'-z, x-3/4, y+1/4'
'z-1/4, x-1/4, -y'
'z+1/4, -x-1/2, y-1/4'
'-y+1/2, -z, -x+1/2'
'y+1/4, -z-1/2, x-1/4'
'-y, z-3/4, x+1/4'
'y-1/4, z-1/4, -x'
'-y-1/4, -x-1/4, z'
'y+1/2, x, z+1/2'
'-y+1/4, x-1/2, -z-1/4'
'y, -x-3/4, -z+1/4'
'-x-1/4, -z-1/4, y'
'x, -z-3/4, -y+1/4'
'x+1/2, z, y+1/2'
'-x+1/4, z-1/2, -y-1/4'
'-z-1/4, -y-1/4, x'
'-z+1/4, y-1/2, -x-1/4'
'z, -y-3/4, -x+1/4'
'z+1/2, y, x+1/2'
'-x+1/2, -y+1/2, -z'
'x-1/4, y+1/4, -z-1/2'
'x+1/4, -y, z-3/4'
'-x, y-1/4, z-1/4'
'-z+1/2, -x+1/2, -y'
'-z, x-1/4, y-1/4'
'z-1/4, x+1/4, -y-1/2'
'z+1/4, -x, y-3/4'
'-y+1/2, -z+1/2, -x'
'y+1/4, -z, x-3/4'
'-y, z-1/4, x-1/4'
'y-1/4, z+1/4, -x-1/2'
'-y-1/4, -x+1/4, z-1/2'
'y+1/2, x+1/2, z'
'-y+1/4, x, -z-3/4'
'y, -x-1/4, -z-1/4'
'-x-1/4, -z+1/4, y-1/2'
'x, -z-1/4, -y-1/4'
'x+1/2, z+1/2, y'
'-x+1/4, z, -y-3/4'
'-z-1/4, -y+1/4, x-1/2'
'-z+1/4, y, -x-3/4'
'z, -y-1/4, -x-1/4'
'z+1/2, y+1/2, x'
loop_
_atom_site_label
_atom_site_type_symbol
_atom_site_fract_x
_atom_site_fract_y
_atom_site_fract_z
_atom_site_U_iso_or_equiv
_atom_site_adp_type
_atom_site_occupancy
_atom_site_site_symmetry_order
_atom_site_calc_flag
_atom_site_refinement_flags_posn
_atom_site_refinement_flags_adp
_atom_site_refinement_flags_occupancy
As1 As 0.26014(5) 0.26014(5) 0.26014(5) 0.0111(3) Uani 1 6 d S T P
O1 O 0.3750 0.3750 0.1861(3) 0.0112(7) Uani 1 4 d S T P
loop_
_atom_site_aniso_label
_atom_site_aniso_U_11
_atom_site_aniso_U_22
_atom_site_aniso_U_33
_atom_site_aniso_U_23
_atom_site_aniso_U_13
_atom_site_aniso_U_12
As1 0.0111(3) 0.0111(3) 0.0111(3) -0.00059(12) -0.00059(12) -0.00059(12)
O1 0.0119(10) 0.0119(10) 0.0097(15) 0.000 0.000 0.0001(13)
loop_
_atom_type_symbol
_atom_type_description
_atom_type_scat_dispersion_real
_atom_type_scat_dispersion_imag
_atom_type_scat_source
O O 0.0020 0.0020 'International Tables Vol C Tables 4.2.6.8 and 6.1.1.4'
As As 0.3110 0.7990 'International Tables Vol C Tables 4.2.6.8 and 6.1.1.4'
loop_
_geom_angle_atom_site_label_1
_geom_angle_atom_site_label_2
_geom_angle_atom_site_label_3
_geom_angle
_geom_angle_site_symmetry_1
_geom_angle_site_symmetry_3
O1 As1 O1 96.87(14) . 9
O1 As1 O1 96.87(14) . 5
O1 As1 O1 96.87(14) 9 5
As1 O1 As1 131.0(2) . 26_554
loop_
_geom_bond_atom_site_label_1
_geom_bond_atom_site_label_2
_geom_bond_distance
_geom_bond_site_symmetry_2
As1 O1 1.7941(15) .
As1 O1 1.7941(15) 9
As1 O1 1.7941(15) 5
O1 As1 1.7941(15) 26_554
