#------------------------------------------------------------------------------
#$Date: 2015-09-04 08:12:49 +0300 (Fri, 04 Sep 2015) $
#$Revision: 153928 $
#$URL: svn://www.crystallography.net/cod/cif/4/51/35/4513572.cif $
#------------------------------------------------------------------------------
#
# This file is available in the Crystallography Open Database (COD),
# http://www.crystallography.net/
#
# All data on this site have been placed in the public domain by the
# contributors.
#
data_4513572
loop_
_publ_author_name
'Gu\'nka, Piotr A.'
'Dziubek, Kamil F.'
'G\/ladysiak, Andrzej'
'Dranka, Maciej'
'Piechota, Jacek'
'Hanfland, Michael'
'Katrusiak, Andrzej'
'Zachara, Janusz'
_publ_section_title
;
 Compressed Arsenolite As4O6and Its Helium Clathrate As4O6&#x00B7;2He
;
_journal_issue                   8
_journal_name_full               'Crystal Growth &amp; Design'
_journal_page_first              3740
_journal_paper_doi               10.1021/acs.cgd.5b00390
_journal_volume                  15
_journal_year                    2015
_chemical_formula_moiety         'As4 O6'
_chemical_formula_sum            'As4 O6'
_chemical_formula_weight         395.69
_chemical_name_common            arsenolite
_space_group_crystal_system      cubic
_space_group_IT_number           227
_space_group_name_Hall           '-F 4vw 2vw 3'
_space_group_name_H-M_alt        'F d -3 m'
_symmetry_space_group_name_Hall  '-F 4vw 2vw 3'
_symmetry_space_group_name_H-M   'F d -3 m :2'
_atom_sites_solution_primary     direct
_audit_creation_date             2014-10-15
_audit_creation_method
;
Olex2 1.2-beta
(compiled 2014.09.19 svn.r3010 for OlexSys, GUI svn.r4874)
;
_cell_angle_alpha                90
_cell_angle_beta                 90
_cell_angle_gamma                90
_cell_formula_units_Z            8
_cell_length_a                   10.3877(3)
_cell_length_b                   10.3877(3)
_cell_length_c                   10.3877(3)
_cell_measurement_pressure       4.64e6(9)
_cell_measurement_reflns_used    441
_cell_measurement_temperature    293(2)
_cell_measurement_theta_max      20.1800
_cell_measurement_theta_min      1.9710
_cell_volume                     1120.88(6)
_computing_cell_refinement
;
CrysAlisPro, Agilent Technologies,
Version 1.171.37.34 (release 22-05-2014 CrysAlis171 .NET)
(compiled May 22 2014,16:03:01)
;
_computing_data_collection
;
CrysAlisPro, Agilent Technologies,
Version 1.171.37.34 (release 22-05-2014 CrysAlis171 .NET)
(compiled May 22 2014,16:03:01)
;
_computing_data_reduction
;
CrysAlisPro, Agilent Technologies,
Version 1.171.37.34 (release 22-05-2014 CrysAlis171 .NET)
(compiled May 22 2014,16:03:01)
;
_computing_molecular_graphics    'Olex2 (Dolomanov et al., 2009)'
_computing_publication_material  'Olex2 (Dolomanov et al., 2009)'
_computing_structure_refinement  'ShelXL (Sheldrick, 2008)'
_computing_structure_solution    'ShelXT (Sheldrick, 2008)'
_diffrn_ambient_environment      He
_diffrn_ambient_pressure         4.64e6(9)
_diffrn_ambient_temperature      293(2)
_diffrn_detector                 'CCD plate'
_diffrn_measured_fraction_theta_full 0.913
_diffrn_measured_fraction_theta_max 0.704
_diffrn_measurement_details
;
  1 phi    148.00  212.00   0.5000    1.0000
omega____ theta____ kappa____ phi______ frames
   0.0000    0.0000    0.0000     -     128
;
_diffrn_measurement_device       'abstract diffractometer'
_diffrn_measurement_device_type
'MAR-CrysAlisPro-abstract goniometer: imported MAR images'
_diffrn_measurement_method       '\p scans'
_diffrn_orient_matrix_UB_11      -0.0323967000
_diffrn_orient_matrix_UB_12      -0.0233210000
_diffrn_orient_matrix_UB_13      -0.0005703000
_diffrn_orient_matrix_UB_21      -0.0153440000
_diffrn_orient_matrix_UB_22      0.0220311000
_diffrn_orient_matrix_UB_23      -0.0294411000
_diffrn_orient_matrix_UB_31      0.0175103000
_diffrn_orient_matrix_UB_32      -0.0236767000
_diffrn_orient_matrix_UB_33      -0.0268877000
_diffrn_radiation_monochromator  synchrotron
_diffrn_radiation_probe          x-ray
_diffrn_radiation_wavelength     0.41427
_diffrn_reflns_av_R_equivalents  0.0330
_diffrn_reflns_av_unetI/netI     0.0226
_diffrn_reflns_laue_measured_fraction_full 0.913
_diffrn_reflns_laue_measured_fraction_max 0.704
_diffrn_reflns_limit_h_max       11
_diffrn_reflns_limit_h_min       -10
_diffrn_reflns_limit_k_max       15
_diffrn_reflns_limit_k_min       -14
_diffrn_reflns_limit_l_max       17
_diffrn_reflns_limit_l_min       -17
_diffrn_reflns_number            553
_diffrn_reflns_point_group_measured_fraction_full 0.913
_diffrn_reflns_point_group_measured_fraction_max 0.704
_diffrn_reflns_theta_full        14.392
_diffrn_reflns_theta_max         20.170
_diffrn_reflns_theta_min         1.979
_diffrn_source                   synchrotron
_exptl_absorpt_coefficient_mu    5.418
_exptl_absorpt_correction_T_max  1.00000
_exptl_absorpt_correction_T_min  0.39916
_exptl_absorpt_correction_type   multi-scan
_exptl_absorpt_process_details
;
CrysAlisPro, Agilent Technologies,
Version 1.171.37.34 (release 22-05-2014 CrysAlis171 .NET)
(compiled May 22 2014,16:03:01)
Empirical absorption correction using spherical harmonics,
 implemented in SCALE3 ABSPACK scaling algorithm.
;
_exptl_crystal_density_diffrn    4.690
_exptl_crystal_description       block
_exptl_crystal_F_000             1440
_exptl_crystal_size_max          0.065
_exptl_crystal_size_mid          0.04
_exptl_crystal_size_min          0.02
_refine_diff_density_max         1.077
_refine_diff_density_min         -1.071
_refine_diff_density_rms         0.232
_refine_ls_extinction_method     none
_refine_ls_goodness_of_fit_ref   1.294
_refine_ls_hydrogen_treatment    undef
_refine_ls_matrix_type           full
_refine_ls_number_parameters     8
_refine_ls_number_reflns         114
_refine_ls_number_restraints     0
_refine_ls_restrained_S_all      1.294
_refine_ls_R_factor_all          0.0346
_refine_ls_R_factor_gt           0.0333
_refine_ls_shift/su_max          0.000
_refine_ls_shift/su_mean         0.000
_refine_ls_structure_factor_coef Fsqd
_refine_ls_weighting_details
'w=1/[\s^2^(Fo^2^)+(0.0466P)^2^+21.2185P] where P=(Fo^2^+2Fc^2^)/3'
_refine_ls_weighting_scheme      calc
_refine_ls_wR_factor_gt          0.0886
_refine_ls_wR_factor_ref         0.0903
_reflns_Friedel_coverage         0.000
_reflns_number_gt                110
_reflns_number_total             114
_reflns_threshold_expression     'I > 2\s(I)'
_cod_data_source_file            cg5b00390_si_002.cif
_cod_data_source_block           marseno_012
_cod_original_cell_volume        1120.87(9)
_cod_database_code               4513572
_shelx_space_group_comment
;
The symmetry employed for this shelxl refinement is uniquely defined
by the following loop, which should always be used as a source of
symmetry information in preference to the above space-group names.
They are only intended as comments.
;
_olex2_refinement_description
;
;
_shelx_res_file
;
    marseno_012.res created by SHELXL-2014/7

TITL marseno_012_a.res in Fd-3m
CELL 0.41427 10.387673 10.387673 10.387673 90 90 90
ZERR 8 0.000268 0.000268 0.000268 0 0 0
LATT 4
SYMM 0.75-X,0.25-Y,0.5+Z
SYMM 0.25-X,0.5+Y,0.75-Z
SYMM 0.5+X,0.75-Y,0.25-Z
SYMM +Z,+X,+Y
SYMM 0.5+Z,0.75-X,0.25-Y
SYMM 0.75-Z,0.25-X,0.5+Y
SYMM 0.25-Z,0.5+X,0.75-Y
SYMM +Y,+Z,+X
SYMM 0.25-Y,0.5+Z,0.75-X
SYMM 0.5+Y,0.75-Z,0.25-X
SYMM 0.75-Y,0.25-Z,0.5+X
SYMM 0.75+Y,0.25+X,0.5-Z
SYMM -Y,-X,-Z
SYMM 0.25+Y,0.5-X,0.75+Z
SYMM 0.5-Y,0.75+X,0.25+Z
SYMM 0.75+X,0.25+Z,0.5-Y
SYMM 0.5-X,0.75+Z,0.25+Y
SYMM -X,-Z,-Y
SYMM 0.25+X,0.5-Z,0.75+Y
SYMM 0.75+Z,0.25+Y,0.5-X
SYMM 0.25+Z,0.5-Y,0.75+X
SYMM 0.5-Z,0.75+Y,0.25+X
SYMM -Z,-Y,-X

SFAC As O
DISP As 0.311 0.799 1882.762
DISP O 0.002 0.002 10.067
UNIT 32.00064 48

L.S. 10
PLAN  20
REM Old TITL marseno_012 in Fd-3m #227
BOND $H
LIST 6
fmap 2
ACTA
REM <HKL>E:/X-Ray_Data_Backup/ESRF_id09_2014_10/data/arsenolite/arseno_012/str
REM uct/olex2_marseno_012/marseno_012.hkl</HKL>

WGHT    0.046600   21.218500
FVAR       1.39752
AS1   1    0.264525    0.264525    0.264525    10.16667    0.00970    0.00970 =
         0.00970   -0.00051   -0.00051   -0.00051
O1    2    0.375000    0.375000    0.191036    10.25000    0.01036    0.01036 =
         0.00776    0.00000    0.00000   -0.00028
HKLF 4

REM  marseno_012_a.res in Fd-3m
REM R1 =  0.0333 for     110 Fo > 4sig(Fo)  and  0.0346 for all     114 data
REM      8 parameters refined using      0 restraints

END

WGHT      0.0470     20.4450

REM Highest difference peak  1.077,  deepest hole -1.071,  1-sigma level  0.232
Q1    1   0.1894  0.2676  0.2676  10.50000  0.05    1.08
Q2    1   0.2655  0.2655  0.3346  10.50000  0.05    0.91
Q3    1   0.4609  0.2891  0.2891  10.16667  0.05    0.77
Q4    1   0.3750  0.3750  0.2458  10.25000  0.05    0.73
Q5    1   0.3804  0.4420  0.2109  11.00000  0.05    0.64
Q6    1   0.4381  0.3486  0.2132  11.00000  0.05    0.64
Q7    1   0.2042  0.2042  0.0458  10.16667  0.05    0.62
Q8    1   0.3750  0.3750  0.1240  10.25000  0.05    0.61
Q9    1   0.3142  0.4609  0.2038  11.00000  0.05    0.55
Q10   1   0.3750  0.3750  0.0390  10.25000  0.05    0.49
Q11   1   0.4259  0.3241  0.2497  10.50000  0.05    0.48
Q12   1   0.3511  0.3259  0.1704  11.00000  0.05    0.45
Q13   1   0.3119  0.3119  0.1539  10.50000  0.05    0.42
Q14   1   0.2903  0.1687  0.1687  10.50000  0.05    0.40
Q15   1   0.4270  0.4760  0.1477  11.00000  0.05    0.40
Q16   1   0.3496  0.4004  0.2783  10.50000  0.05    0.39
Q17   1   0.4966  0.4906  0.0130  10.20000  0.05    0.28
Q18   1   0.4077  0.3034  0.0799  11.00000  0.05    0.22
Q19   1   0.3466  0.2285  0.1599  11.00000  0.05    0.21
Q20   1   0.2455  0.3892  0.1850  11.00000  0.05    0.21
;
_shelx_res_checksum              29584
_shelx_hkl_file
;
  -1   1  -1 142457. 1443.22   1
   1  -1   1 136208. 1449.04   1
   0   0  -2 123.069 41.0400   1
   0   0   2 5.00836 4.18782   1
   0   2  -2 40.8906 38.8473   1
  -2   2   0 43.8696 27.7641   1
   2  -2   0 93.4705 37.5590   1
   0  -2   2 42.4139 27.8912   1
  -1   1  -3 2048.50 237.481   1
  -1   1   3 2018.00 149.896   1
  -1   3  -1 2283.03 242.828   1
   1  -1   3 2344.25 258.942   1
   1  -3   1 1996.76 213.241   1
   1   1  -3 2459.00 255.663   1
   1  -1  -3 2337.09 158.208   1
   3  -1   3 137638. 2316.26   1
  -3   3   1 135315. 1562.45   1
  -3   3  -1 133901. 2070.81   1
   3  -3  -1 138068. 1618.01   1
   3  -3   1 135251. 2139.29   1
  -3   3  -3 38819.5 1269.34   1
   3  -3   3 39936.5 1366.12   1
   3  -3  -3 35430.6 472.584   1
   2  -4   0 5.22768 16.3920   1
   0   2  -4 8.67144 13.5110   1
   0   2   4 21.9702 27.9376   1
   0  -2   4 0.88642 41.5995   1
   2   0   4 50.3618 64.2018   1
  -2   0  -4 27.0093 35.9002   1
  -2   2  -4 42641.7 1323.43   1
   2  -2  -4 42584.5 650.725   1
  -2   4  -2 41374.3 1286.64   1
   2  -4   2 39745.5 1260.25   1
  -2   4   2 42168.0 805.934   1
   2  -2   4 43479.1 1433.10   1
  -4   4  -2 17307.7 879.307   1
  -2   4   4 6814.43 128.865   1
  -2   4  -4 14933.0 913.210   1
   2  -4   4 14710.1 927.255   1
   4  -4  -2 16512.8 606.542   1
  -2   4   4 8512.66 135.398   1
  -4   2  -4 15761.5 864.324   1
   4  -4   2 16859.5 914.176   1
   4  -2   4 15907.2 922.566   1
   1   1  -5 40417.5 1251.91   1
   1  -1  -5 41481.6 1003.96   1
  -1  -1   5 37186.2 1129.15   1
  -1  -1  -5 36909.3 1098.84   1
   1  -1   5 40957.9 1318.70   1
  -1   1   5 39430.2 985.390   1
  -1   1  -5 41423.4 1311.23   1
   1   1   5 39373.8 1137.48   1
   3  -1   5 22076.3 1071.32   1
  -3   5  -1 21686.8 962.252   1
  -1   3  -5 19949.3 1038.55   1
  -1   3   5 22101.7 607.007   1
   1  -5   3 20046.2 1017.22   1
  -3   5   1 20899.6 784.958   1
  -3   1  -5 20508.6 968.718   1
   3  -5   1 21842.9 956.901   1
  -1   5  -3 20977.0 1095.57   1
   1  -3   5 20662.1 1033.08   1
   3  -5  -1 21262.4 763.300   1
   5  -3   3 1634.56 296.881   1
  -5   3  -3 1919.13 320.796   1
  -3   3  -5 1684.26 296.627   1
   3  -5   3 1873.33 318.595   1
  -3   5  -3 2027.29 323.636   1
  -3   5   3 1984.41 169.021   1
   3  -3   5 1900.96 353.157   1
   3  -3  -5 1478.92 94.5039   1
  -5   5  -1 240713. 3355.61   1
  -5   5   1 244190. 3003.49   1
   1  -5   5 239726. 3923.90   1
   5  -5  -1 237958. 3006.50   1
   5  -5   1 248049. 3584.83   1
  -1   5  -5 248543. 4137.08   1
   5  -5   3 28553.8 1398.48   1
   5  -5  -3 31546.8 877.797   1
   5  -3   5 28073.9 1441.01   1
  -5   3  -5 28745.0 1353.02   1
   3  -5   5 30268.7 1491.22   1
  -5   5  -3 29524.1 1313.67   1
  -3   5  -5 29055.6 1464.77   1
   5  -5   5 117094. 3131.86   1
  -5   5  -5 116727. 2974.15   1
   0   0   6 4.99597 15.3490   1
   0   0  -6 14.1093 12.6404   1
   0   2   6 33.0612 13.7139   1
   0   2  -6 49.0938 64.8166   1
  -2   6   0 30.5049 27.5305   1
  -2   0  -6 25.5674 44.6380   1
   0  -2   6 43.7467 55.9779   1
   2   0  -6 42.3721 44.7881   1
   6  -4   0 28.0251 62.5475   1
   4  -6   0 68.6402 61.3180   1
  -4   6   0 19.4200 43.3234   1
  -2   6  -4 5371.55 628.021   1
   4  -6   2 6279.56 613.039   1
   4  -2   6 6538.81 670.048   1
  -2   4  -6 5535.41 633.862   1
  -4   6  -2 6281.42 598.053   1
   4  -6  -2 5847.46 420.774   1
  -4   6   2 6058.69 409.050   1
   2  -6   4 5724.21 628.770   1
  -4   2  -6 6316.25 608.493   1
   6  -4   2 6450.93 617.317   1
   2  -4   6 6482.15 679.398   1
  -2   4   6 5827.66 271.853   1
   6  -4   4 7004.92 744.786   1
   4  -6   4 7377.73 756.648   1
   4  -4   6 7517.81 778.859   1
  -6   4  -4 8381.38 776.367   1
  -4   6  -4 7295.98 728.863   1
  -4   4  -6 7143.83 728.688   1
   6  -6   0 126592. 2691.40   1
  -6   6   0 131030. 2575.32   1
   6  -6   2 290931. 4570.79   1
   6  -6  -2 293027. 3455.37   1
  -4   6  -6 10092.5 926.181   1
   4  -6   6 10948.5 1001.94   1
   6  -6   4 11141.5 971.767   1
   6  -6  -4 9620.39 482.218   1
  -6   6  -4 10908.9 904.279   1
  -6   4  -6 10163.2 932.877   1
   6  -4   6 12298.0 1106.43   1
   6  -6   6 146970. 3809.04   1
  -6   6  -6 149167. 3694.53   1
   1  -1   7 30518.9 1353.05   1
   1  -1  -7 30910.2 1068.83   1
  -1   1  -7 31312.2 1325.36   1
  -1  -1   7 30432.5 1237.25   1
   1   1   7 33035.6 1334.60   1
   1   1  -7 31562.7 1282.16   1
  -1  -1  -7 30426.3 1130.69   1
  -1   1   7 30081.6 1074.06   1
  -3   7  -1 71115.7 2084.15   1
   3  -1  -7 76725.4 1719.44   1
  -1   3   7 74309.0 1499.16   1
  -1   3  -7 68931.8 2188.04   1
   1   3  -7 77430.8 2432.59   1
  -3   1  -7 71281.3 2070.99   1
  -1  -3   7 73711.0 2162.33   1
   3  -7   1 69645.1 1920.29   1
   1  -3   7 68842.6 2169.66   1
   3  -1   7 71791.0 2265.93   1
  -3   7   1 78108.0 1977.43   1
   3  -3   7 249716. 4362.57   1
  -3   7  -3 250456. 4402.56   1
   3  -3  -7 240583. 2066.80   1
   3  -7   3 243985. 4044.79   1
   7  -5   1 7814.71 692.589   1
  -1   5   7 8104.11 461.510   1
   5  -7   1 7956.49 706.419   1
   7  -5  -1 7146.53 582.042   1
   1  -5   7 7497.68 773.684   1
  -1   5  -7 7642.66 847.288   1
  -5   7  -1 7718.11 656.177   1
  -5   7   1 8598.36 604.111   1
   5  -7  -1 8388.75 623.188   1
  -1   7  -5 7043.62 845.148   1
  -5   7  -3 15700.2 1090.32   1
   5  -7   3 14433.8 1058.19   1
  -3   7  -5 13119.4 1147.11   1
   3  -7   5 14250.1 1107.50   1
   5  -7  -3 15554.1 683.423   1
  -3   5  -7 14578.5 1106.58   1
   5  -3   7 16212.9 1222.07   1
  -5   3  -7 15622.1 1108.00   1
  -3   7   5 12001.3 433.192   1
  -5   7   3 15242.3 644.384   1
   7  -5   3 14804.8 1087.10   1
   3  -5   7 15037.9 1159.98   1
   5  -7   5 3821.74 610.029   1
  -5   5  -7 4050.07 594.919   1
  -5   7  -5 3587.14 568.786   1
   7  -5   5 4393.24 665.993   1
  -7   5  -5 4060.18 617.391   1
   5  -5   7 3422.61 560.239   1
  -7   7  -1 87256.3 2358.57   1
   7  -7   1 86777.4 2537.78   1
   7  -7  -1 84732.5 2177.04   1
   3  -7   7 113785. 3401.45   1
   7  -7  -3 110798. 2134.85   1
   7  -7   3 112399. 3132.04   1
  -7   7  -3 113030. 2939.93   1
  -7   5  -7 18744.7 1388.83   1
   7  -7   5 17601.4 1326.16   1
   7  -7  -5 16394.2 603.248   1
  -5   7  -7 16960.4 1339.01   1
   7  -5   7 16909.5 1443.03   1
  -7   7  -5 19708.7 1365.85   1
   5  -7   7 17115.3 1401.28   1
   7  -7   7 138578. 4231.68   1
  -7   7  -7 136868. 3937.99   1
   2   0  -8 69.4240 26.9956   1
   2   0   8 30.3003 67.0660   1
  -2   8  -2 11740.1 1008.34   1
   2   2  -8 12361.5 988.971   1
   2  -2   8 13429.9 1042.47   1
  -2   2  -8 12286.6 920.853   1
   2  -2  -8 13325.4 671.903   1
  -2   2   8 15559.5 778.771   1
   2   2   8 14867.5 959.075   1
   0   4   8 265850. 3344.12   1
   4  -8   0 273375. 3891.08   1
   0   4  -8 273494. 4917.87   1
  -4   8   0 278424. 4259.56   1
   2  -4   8 27678.4 1581.41   1
   4  -2  -8 28094.4 1016.10   1
  -2   4  -8 27925.3 1609.08   1
  -4   8  -2 26629.9 1493.14   1
  -4   8   2 28283.1 1177.64   1
   2  -8   4 26402.5 1489.26   1
   4  -2   8 29034.1 1663.20   1
  -4   2  -8 27521.8 1464.03   1
   4  -8   2 27136.5 1393.65   1
  -2   8  -4 26575.3 1652.10   1
  -2   4   8 29906.3 918.671   1
  -4   8   4 151595. 2039.98   1
   4  -4   8 154199. 3945.16   1
  -4   8  -4 147679. 3846.05   1
  -4   4  -8 155844. 3826.58   1
   4  -8   4 147748. 3591.14   1
   6  -8   0 121.047 91.5449   1
   8  -6   0 37.1541 76.3730   1
   6  -8   2 6768.77 746.592   1
  -2   8  -6 6039.25 847.129   1
  -6   8  -2 6517.42 705.001   1
  -2   6   8 6087.16 338.247   1
  -2   6  -8 5463.58 782.977   1
   8  -6   2 6828.38 762.622   1
  -6   8   2 6626.02 521.014   1
   2  -8   6 6346.57 818.473   1
   2  -6   8 6478.74 809.764   1
   6  -8  -2 6720.59 551.557   1
   4  -6   8 15601.2 1343.91   1
   4  -8   6 15497.8 1299.10   1
  -6   8  -4 14221.4 1134.33   1
  -4   6  -8 13186.0 1155.44   1
   6  -4   8 16003.7 1368.19   1
   8  -6   4 15301.8 1268.58   1
  -6   4  -8 14686.9 1201.35   1
  -4   8  -6 13729.4 1319.65   1
   6  -4  -8 9670.44 424.455   1
   6  -8   4 15230.4 1222.09   1
   6  -8   6 16796.7 1389.47   1
  -8   6  -6 16957.7 1395.75   1
   6  -6   8 17466.5 1491.00   1
   8  -6   6 16903.6 1467.88   1
  -6   6  -8 15973.1 1318.45   1
  -6   8  -6 16393.7 1349.79   1
   8  -6  -6 12812.7 588.606   1
   8  -8   0 71446.9 2344.09   1
  -8   8  -2 60013.1 2271.37   1
   8  -8  -2 56366.0 1834.12   1
  -2   8  -8 53508.4 2810.50   1
   8  -8   2 53894.6 2185.09   1
   2  -8   8 52687.7 2528.06   1
   8  -8  -4 110083. 2187.48   1
   8  -8   4 111790. 3537.64   1
   4  -8   8 106950. 3723.83   1
  -8   8  -4 105747. 3177.81   1
  -4   8  -8 100520. 3628.27   1
  -8   6  -8 32014.4 2076.05   1
  -6   8  -8 30551.7 1997.84   1
  -8   8  -6 32388.6 1917.41   1
  -1   1  -9 108299. 2744.01   1
   1  -1  -9 112234. 2384.63   1
   1  -1   9 109104. 2912.40   1
   1   1   9 118018. 2853.80   1
   1   1  -9 113522. 2863.62   1
  -1  -1   9 115236. 2745.53   1
  -1   1   9 109968. 2451.89   1
  -1  -1  -9 109146. 2478.36   1
   3   1   9 60586.2 2318.31   1
  -3   9   1 59754.1 2164.07   1
  -3   9  -1 55810.2 2266.78   1
  -1   3  -9 55512.5 2244.27   1
  -3   1  -9 54749.2 2040.94   1
   3  -1  -9 58451.5 1773.23   1
   3  -1   9 56577.0 2251.15   1
  -1   3   9 58640.1 1630.42   1
  -1  -3   9 57142.9 2133.90   1
   1   3  -9 56144.2 2260.05   1
   1   3   9 57883.2 1879.98   1
   3   1  -9 55310.4 2134.06   1
   1  -3   9 54064.6 2175.51   1
   3  -9   3 1864.47 403.941   1
  -3   9   3 2175.84 366.172   1
   3  -3   9 1828.84 390.162   1
  -3   3  -9 1520.72 364.915   1
   3  -3  -9 2085.60 250.644   1
  -3   9  -3 1605.26 421.030   1
   5  -9  -1 104002. 2468.04   1
  -1   5   9 97311.2 1925.22   1
   1  -5   9 98064.8 3091.90   1
   5  -9   1 99098.7 2692.56   1
  -5   9  -1 101983. 2887.60   1
  -5   9   1 101759. 2530.39   1
  -1   5  -9 93219.1 3300.36   1
   3  -5   9 37293.1 2045.72   1
  -3   9   5 36080.0 1158.53   1
  -5   9   3 37802.8 1253.05   1
  -3   9  -5 35227.0 2089.47   1
   5  -3   9 35138.2 2044.48   1
   5  -3  -9 33887.9 1067.03   1
  -5   3  -9 36939.0 1883.10   1
   3  -9   5 33822.7 1844.05   1
  -5   9  -3 36966.9 1939.52   1
   5  -9   3 35134.2 1763.74   1
  -3   5  -9 35464.5 1942.84   1
  -5   9  -5 151629. 4251.29   1
   5  -5   9 155759. 4362.96   1
   5  -9   5 150491. 4072.97   1
  -5   5  -9 144596. 3936.43   1
  -1   7  -9 1638.68 509.427   1
  -7   9  -1 1450.69 329.136   1
   1  -7   9 657.414 279.929   1
   9  -7   1 1147.60 324.026   1
   7  -9  -1 1766.16 348.293   1
   7  -9   1 1667.05 372.417   1
  -7   9   1 1814.78 317.192   1
   7  -9   3 5655.77 761.932   1
  -3   9   7 3276.24 242.908   1
  -3   7  -9 4910.69 810.376   1
  -3   9  -7 5856.25 934.475   1
  -7   9  -3 5619.98 728.009   1
   9  -7   3 5487.50 784.996   1
   9  -7  -3 2822.04 435.361   1
   3  -9   7 5783.11 834.335   1
   7  -9  -3 5334.97 493.520   1
   3  -7   9 5414.56 820.054   1
   9  -7   5 2272.94 533.423   1
  -5   7  -9 2376.63 532.613   1
   9  -7  -5 2450.29 333.021   1
  -7   5  -9 2951.63 600.178   1
  -7   9  -5 3032.19 587.953   1
   7  -9   5 2720.87 581.145   1
  -5   9  -7 2417.45 571.353   1
   9  -7  -7 65.2749 37.4055   1
   9  -9  -1 61166.4 2226.75   1
   9  -9   1 59266.2 2418.59   1
   9  -9  -3 41362.1 1627.57   1
  -9   9  -3 43074.0 2158.55   1
   9  -9   3 42865.5 2255.00   1
  -9   9  -5 82859.2 3164.57   1
   0   0 -10 70.6750 90.4451   1
   0   0  10 12.7994 11.4669   1
   0   2  10 17219.0 1042.54   1
   0  -2 -10 15756.0 971.711   1
   2   0  10 17152.4 1240.65   1
   2   0 -10 18015.6 1144.50   1
  -2   0  10 18109.1 1141.11   1
   0   2 -10 18785.7 1282.90   1
  -2   0 -10 15777.2 1093.42   1
   0  -2  10 17369.9 1191.64   1
   2  -2  10 145709. 3785.25   1
   2   2 -10 154178. 3754.44   1
  -2   2 -10 155784. 3841.34   1
   2  -2 -10 154403. 2698.56   1
   2   2  10 163183. 3724.92   1
  -2   2  10 167609. 2973.58   1
   0   4 -10 45.1411 128.001   1
   0   4  10 29.8257 42.7158   1
   0  -4  10 6.68155 71.2191   1
   4   0  10 81.0213 129.592   1
   4   0 -10 120.445 125.294   1
   2  -4  10 6909.92 873.315   1
  -4  10   2 7891.33 806.640   1
  -4  10  -2 7575.58 998.827   1
   4  -2  10 8307.85 986.959   1
   4  -2 -10 7760.54 641.441   1
  -4   2 -10 7418.85 831.950   1
  -2   4  10 8394.49 591.691   1
  -2   4 -10 7633.42 906.412   1
  -4  10   4 2067.09 353.151   1
  -4  10  -4 1489.26 471.964   1
   4 -10   4 2035.08 480.092   1
  -4   4 -10 1886.60 441.194   1
   4  -4  10 2262.38 502.174   1
  -6  10   0 19827.4 1236.16   1
   0   6 -10 21724.5 1869.12   1
   0  -6  10 17339.7 1451.45   1
   6 -10   0 18277.5 1171.01   1
  -2   6  10 74783.4 1577.23   1
  -6  10  -2 76154.1 2769.25   1
  -6  10   2 77087.7 2128.50   1
  -2   6 -10 69525.5 3124.81   1
   6 -10   2 71395.5 2568.89   1
   2  -6  10 70531.0 2912.15   1
  -6  10  -4 56529.3 2629.40   1
   6  -4 -10 46762.1 1059.86   1
  -4   6 -10 50833.7 2516.95   1
  -4  10  -6 52474.8 2868.03   1
  -6  10   4 50221.4 1349.42   1
   4 -10   6 48931.8 2468.59   1
  -4  10   6 44175.1 1122.33   1
   6 -10   4 50178.9 2369.10   1
  -6   4 -10 55782.9 2588.65   1
  -6  10  -6 39323.2 2412.27   1
  10  -8   0 53.9214 46.4929   1
  -8  10   0 32.7542 86.2892   1
   8 -10   0 88.7170 130.158   1
  10  -8  -2 87.6847 99.0569   1
   8 -10  -2 170.161 124.325   1
   8 -10   2 78.3554 28.3702   1
  -8  10  -2 155.934 137.404   1
  -2   8  10 144.988 56.7374   1
  10  -8   4 3788.68 738.456   1
  -8  10  -4 4132.76 678.967   1
  10  -8  -4 3607.82 488.599   1
   8 -10   4 4356.75 742.498   1
  10  -8  -6 11414.7 740.297   1
  10 -10   0 90716.6 3107.70   1
  10 -10  -2 19659.3 1296.80   1
  10 -10   2 17279.9 1458.14   1
  10 -10  -4 42394.2 1746.02   1
   1  -1  11 74242.0 2662.84   1
  -1  -1 -11 78817.8 2438.16   1
   1   1  11 75151.4 2532.42   1
  -1   1 -11 76780.9 2620.62   1
   1  -1 -11 78136.3 2248.79   1
  -1  -1  11 72640.8 2422.25   1
   1   1 -11 79025.6 2642.12   1
  -1   1  11 77799.0 2338.64   1
  -1   3  11 64563.3 1987.02   1
   3  -1  11 60497.6 2565.51   1
   3   1 -11 60334.6 2397.26   1
   1   3  11 61230.7 2229.83   1
   1   3 -11 59147.0 2639.16   1
   3   1  11 66870.3 2691.34   1
  -1  -3  11 62791.4 2506.48   1
   3  -1 -11 66161.3 2101.99   1
  -3   1 -11 58833.1 2366.29   1
   1  -3  11 60006.7 2503.25   1
  -1   3 -11 61231.0 2596.12   1
   3  -3  11 85694.5 3268.30   1
  -3   3 -11 86155.7 3086.11   1
   3  -3 -11 88362.8 1946.66   1
  -1   5  11 5872.37 563.769   1
   1   5 -11 6509.72 1015.12   1
   5  -1  11 6602.78 992.793   1
  -5  11  -1 5932.74 893.764   1
  -5  11   1 6270.02 798.801   1
  -1   5 -11 5897.18 932.503   1
   1  -5  11 6174.37 851.426   1
   5  -3 -11 26802.4 1098.66   1
  -3   5 -11 22550.5 1698.64   1
   5  -3  11 26696.5 1900.76   1
  -5  11  -3 24966.9 1955.11   1
  -5  11   3 26274.0 1362.49   1
   5 -11   3 21438.7 1542.61   1
  -5   3 -11 25413.9 1737.31   1
  -5  11   5 23389.8 1007.68   1
  -5  11  -5 24333.8 2079.91   1
  -7  11  -1 60217.8 2434.24   1
  -1   7  11 60131.0 1773.02   1
  -7  11   1 60791.1 2145.59   1
   7 -11  -1 59897.0 2145.94   1
   7 -11   1 56303.7 2271.08   1
  -7  11  -3 78399.4 3095.95   1
  -7  11   3 76207.4 2059.37   1
   7 -11   3 74013.6 2868.90   1
  -7  11  -5 5548.05 919.692   1
  -9  11  -1 2852.51 533.215   1
   9 -11  -1 2458.17 465.676   1
   9 -11   1 2139.19 480.632   1
   9 -11  -3 733.990 243.763   1
  -9  11  -3 568.000 285.924   1
  11 -11  -1 10031.6 1050.79   1
  11 -11   1 9323.06 1069.39   1
   0   0 -12 28732.4 1544.41   1
   0   0  12 26497.7 1544.35   1
   2   0 -12 2.16692 95.1249   1
  -2   0 -12 61.4506 59.7015   1
   0   2  12 20.0279 25.1200   1
   2   2  12 1785.48 427.446   1
   2  -2 -12 2420.18 371.989   1
  -2   2  12 2692.70 433.116   1
   2   2 -12 874.685 314.089   1
   2  -2  12 1712.39 459.292   1
  -2   2 -12 2261.20 479.521   1
   0   4  12 64340.2 2201.72   1
   4   0 -12 61189.4 2379.90   1
   4   0  12 59102.7 2812.33   1
   0   4 -12 65168.8 3099.60   1
   0  -4  12 62143.3 2667.15   1
   4  -2 -12 25067.8 1279.67   1
  -2   4 -12 22828.4 1713.96   1
   4  -2  12 22943.9 1780.73   1
  -4  12  -2 23630.9 1908.35   1
  -2   4  12 26174.4 1247.04   1
  -4   2 -12 23096.4 1646.98   1
   2  -4  12 21667.4 1696.68   1
  -4  12  -4 31009.7 2383.67   1
  -4   4 -12 29631.8 1973.51   1
   0   6  12 18.9765 86.5501   1
  -6  12   0 208.182 175.230   1
  -6  12   2 519.883 208.914   1
   6  -2 -12 344.772 165.949   1
  -6  12  -2 541.321 303.636   1
   6 -12   2 411.022 206.967   1
  -6  12   4 14709.6 1026.21   1
  -6  12  -4 13753.9 1551.78   1
  -8  12   0 15275.3 1231.31   1
   8 -12   0 14142.7 1165.70   1
  -8  12  -2 49926.2 2444.06   1
   8 -12   2 48026.9 2344.82   1
  -8  12   2 55684.7 2083.27   1
  10 -12   0 184.136 103.411   1
  10 -12  -2 691.787 272.235   1
 -10  12  -2 46.4068 97.5031   1
   1  -1  13 55322.4 2500.41   1
   1   1 -13 58265.2 2452.24   1
   1   1  13 58460.3 2448.07   1
  -1  -1 -13 60859.4 2481.78   1
  -1   1 -13 58458.9 2513.73   1
   1  -1 -13 61248.6 2231.03   1
  -1  -1  13 62287.9 2511.10   1
  -1   1  13 62193.1 2360.61   1
  -3   1 -13 25012.4 1763.74   1
   3  -1 -13 24638.8 1402.15   1
  -1   3 -13 22643.2 1705.53   1
   3  -1  13 24063.3 1800.26   1
   1   3  13 22458.4 1458.06   1
   3   1  13 21888.7 1670.43   1
   3   1 -13 24640.9 1661.30   1
  -1  -3  13 25526.4 1742.27   1
   1   3 -13 24903.0 1899.41   1
   1  -3  13 22301.0 1664.35   1
  -1   3  13 26743.1 1462.51   1
  -3   3 -13 44445.7 2466.54   1
  -1   5  13 60601.7 2141.82   1
   1   5 -13 57164.5 3376.35   1
  -5  13  -1 61210.6 3128.65   1
  -5  13   1 58385.1 2743.87   1
   5  -1 -13 63583.7 2475.69   1
   5  -3 -13 34251.4 1390.46   1
  -5  13  -3 30027.2 2379.36   1
  -5  13   3 30849.4 1820.35   1
  -7  13  -1 9921.90 1146.39   1
  -7  13   1 11495.2 1136.39   1
  -7  13  -3 3175.93 716.323   1
  -7  13   3 4796.10 640.796   1
  -9  13   1 37492.5 2025.56   1
  -9  13  -1 35676.6 2074.10   1
   9 -13   1 32465.4 1978.50   1
  11 -13  -1 712.240 290.004   1
   0   0 -14 72.2182 87.1047   1
   2   0  14 7675.38 977.635   1
  -2   0 -14 8521.71 1035.10   1
   0   2 -14 7088.26 949.417   1
   2   0 -14 8168.69 924.795   1
   0  -2  14 7978.32 972.864   1
   0   2  14 8019.40 896.705   1
   2   2  14 12928.5 1237.23   1
  -2   2 -14 12646.3 1283.98   1
  -2   2  14 15641.7 1200.40   1
   2   2 -14 12555.0 1338.02   1
   2  -2 -14 14098.8 1048.98   1
   0   4  14 329.393 205.923   1
   2   4 -14 129.542 155.972   1
   4  -2 -14 60.4314 76.8416   1
  -6  14   0 43279.5 2540.94   1
  -6  14  -2 7161.85 1137.69   1
  -6  14   2 7211.73 962.430   1
  -8  14  -2 7214.48 1198.94   1
  -8  14   2 10783.0 1131.16   1
 -10  14   0 45175.4 2655.97   1
  10 -14   0 40160.4 2379.64   1
   1   1  15 26182.6 1797.75   1
   1   1 -15 28780.6 1972.21   1
  -1   1 -15 24606.9 1738.61   1
  -1  -1  15 28254.7 1880.98   1
  -1   1  15 28006.7 1711.17   1
   1  -1 -15 29465.3 1718.67   1
   1   3  15 27242.5 1776.66   1
   3  -1 -15 31402.5 1809.92   1
  -1   3  15 32542.2 1860.50   1
   3   1 -15 29708.6 2021.90   1
   5  -1 -15 34168.9 2078.28   1
  -7  15  -1 16568.7 1716.60   1
   0   0 -16 11798.9 1172.95   1
   0   2  16 182.160 124.568   1
   4   0 -16 603.492 341.946   1
   1  -1 -17 35241.1 2215.19   1
  -1   1  17 33885.0 2230.17   1
   3   1 -17 18184.4 1712.64   1
   0   0   0    0.00    0.00   0
TITL marseno_012 in Fd-3m
REM Fd-3m (#227 in standard setting)
CELL 0.41427  10.387673  10.387673  10.387673  90.0000  90.0000  90.0000
ZERR    5.00   0.000268   0.000268   0.000268   0.0000   0.0000   0.0000
LATT  4
SYMM -x+3/4,-y+1/4, z+1/2
SYMM -x+1/4, y+1/2,-z+3/4
SYMM  x+1/2,-y+3/4,-z+1/4
SYMM  z, x, y
SYMM  z+1/2,-x+3/4,-y+1/4
SYMM -z+3/4,-x+1/4, y+1/2
SYMM -z+1/4, x+1/2,-y+3/4
SYMM  y, z, x
SYMM -y+1/4, z+1/2,-x+3/4
SYMM  y+1/2,-z+3/4,-x+1/4
SYMM -y+3/4,-z+1/4, x+1/2
SYMM  y+3/4, x+1/4,-z+1/2
SYMM -y,-x,-z
SYMM  y+1/4,-x+1/2, z+3/4
SYMM -y+1/2, x+3/4, z+1/4
SYMM  x+3/4, z+1/4,-y+1/2
SYMM -x+1/2, z+3/4, y+1/4
SYMM -x,-z,-y
SYMM  x+1/4,-z+1/2, y+3/4
SYMM  z+3/4, y+1/4,-x+1/2
SYMM  z+1/4,-y+1/2, x+3/4
SYMM -z+1/2, y+3/4, x+1/4
SYMM -z,-y,-x
SFAC O As
UNIT 30.00 20.00
TREF
HKLF 4
END
;
_shelx_hkl_checksum              47790
_shelx_shelxl_version_number     2014/7
loop_
_space_group_symop_operation_xyz
'x, y, z'
'-x+3/4, -y+1/4, z+1/2'
'-x+1/4, y+1/2, -z+3/4'
'x+1/2, -y+3/4, -z+1/4'
'z, x, y'
'z+1/2, -x+3/4, -y+1/4'
'-z+3/4, -x+1/4, y+1/2'
'-z+1/4, x+1/2, -y+3/4'
'y, z, x'
'-y+1/4, z+1/2, -x+3/4'
'y+1/2, -z+3/4, -x+1/4'
'-y+3/4, -z+1/4, x+1/2'
'y+3/4, x+1/4, -z+1/2'
'-y, -x, -z'
'y+1/4, -x+1/2, z+3/4'
'-y+1/2, x+3/4, z+1/4'
'x+3/4, z+1/4, -y+1/2'
'-x+1/2, z+3/4, y+1/4'
'-x, -z, -y'
'x+1/4, -z+1/2, y+3/4'
'z+3/4, y+1/4, -x+1/2'
'z+1/4, -y+1/2, x+3/4'
'-z+1/2, y+3/4, x+1/4'
'-z, -y, -x'
'x, y+1/2, z+1/2'
'-x+3/4, -y+3/4, z+1'
'-x+1/4, y+1, -z+5/4'
'x+1/2, -y+5/4, -z+3/4'
'z, x+1/2, y+1/2'
'z+1/2, -x+5/4, -y+3/4'
'-z+3/4, -x+3/4, y+1'
'-z+1/4, x+1, -y+5/4'
'y, z+1/2, x+1/2'
'-y+1/4, z+1, -x+5/4'
'y+1/2, -z+5/4, -x+3/4'
'-y+3/4, -z+3/4, x+1'
'y+3/4, x+3/4, -z+1'
'-y, -x+1/2, -z+1/2'
'y+1/4, -x+1, z+5/4'
'-y+1/2, x+5/4, z+3/4'
'x+3/4, z+3/4, -y+1'
'-x+1/2, z+5/4, y+3/4'
'-x, -z+1/2, -y+1/2'
'x+1/4, -z+1, y+5/4'
'z+3/4, y+3/4, -x+1'
'z+1/4, -y+1, x+5/4'
'-z+1/2, y+5/4, x+3/4'
'-z, -y+1/2, -x+1/2'
'x+1/2, y, z+1/2'
'-x+5/4, -y+1/4, z+1'
'-x+3/4, y+1/2, -z+5/4'
'x+1, -y+3/4, -z+3/4'
'z+1/2, x, y+1/2'
'z+1, -x+3/4, -y+3/4'
'-z+5/4, -x+1/4, y+1'
'-z+3/4, x+1/2, -y+5/4'
'y+1/2, z, x+1/2'
'-y+3/4, z+1/2, -x+5/4'
'y+1, -z+3/4, -x+3/4'
'-y+5/4, -z+1/4, x+1'
'y+5/4, x+1/4, -z+1'
'-y+1/2, -x, -z+1/2'
'y+3/4, -x+1/2, z+5/4'
'-y+1, x+3/4, z+3/4'
'x+5/4, z+1/4, -y+1'
'-x+1, z+3/4, y+3/4'
'-x+1/2, -z, -y+1/2'
'x+3/4, -z+1/2, y+5/4'
'z+5/4, y+1/4, -x+1'
'z+3/4, -y+1/2, x+5/4'
'-z+1, y+3/4, x+3/4'
'-z+1/2, -y, -x+1/2'
'x+1/2, y+1/2, z'
'-x+5/4, -y+3/4, z+1/2'
'-x+3/4, y+1, -z+3/4'
'x+1, -y+5/4, -z+1/4'
'z+1/2, x+1/2, y'
'z+1, -x+5/4, -y+1/4'
'-z+5/4, -x+3/4, y+1/2'
'-z+3/4, x+1, -y+3/4'
'y+1/2, z+1/2, x'
'-y+3/4, z+1, -x+3/4'
'y+1, -z+5/4, -x+1/4'
'-y+5/4, -z+3/4, x+1/2'
'y+5/4, x+3/4, -z+1/2'
'-y+1/2, -x+1/2, -z'
'y+3/4, -x+1, z+3/4'
'-y+1, x+5/4, z+1/4'
'x+5/4, z+3/4, -y+1/2'
'-x+1, z+5/4, y+1/4'
'-x+1/2, -z+1/2, -y'
'x+3/4, -z+1, y+3/4'
'z+5/4, y+3/4, -x+1/2'
'z+3/4, -y+1, x+3/4'
'-z+1, y+5/4, x+1/4'
'-z+1/2, -y+1/2, -x'
'-x, -y, -z'
'x-3/4, y-1/4, -z-1/2'
'x-1/4, -y-1/2, z-3/4'
'-x-1/2, y-3/4, z-1/4'
'-z, -x, -y'
'-z-1/2, x-3/4, y-1/4'
'z-3/4, x-1/4, -y-1/2'
'z-1/4, -x-1/2, y-3/4'
'-y, -z, -x'
'y-1/4, -z-1/2, x-3/4'
'-y-1/2, z-3/4, x-1/4'
'y-3/4, z-1/4, -x-1/2'
'-y-3/4, -x-1/4, z-1/2'
'y, x, z'
'-y-1/4, x-1/2, -z-3/4'
'y-1/2, -x-3/4, -z-1/4'
'-x-3/4, -z-1/4, y-1/2'
'x-1/2, -z-3/4, -y-1/4'
'x, z, y'
'-x-1/4, z-1/2, -y-3/4'
'-z-3/4, -y-1/4, x-1/2'
'-z-1/4, y-1/2, -x-3/4'
'z-1/2, -y-3/4, -x-1/4'
'z, y, x'
'-x, -y+1/2, -z+1/2'
'x-3/4, y+1/4, -z'
'x-1/4, -y, z-1/4'
'-x-1/2, y-1/4, z+1/4'
'-z, -x+1/2, -y+1/2'
'-z-1/2, x-1/4, y+1/4'
'z-3/4, x+1/4, -y'
'z-1/4, -x, y-1/4'
'-y, -z+1/2, -x+1/2'
'y-1/4, -z, x-1/4'
'-y-1/2, z-1/4, x+1/4'
'y-3/4, z+1/4, -x'
'-y-3/4, -x+1/4, z'
'y, x+1/2, z+1/2'
'-y-1/4, x, -z-1/4'
'y-1/2, -x-1/4, -z+1/4'
'-x-3/4, -z+1/4, y'
'x-1/2, -z-1/4, -y+1/4'
'x, z+1/2, y+1/2'
'-x-1/4, z, -y-1/4'
'-z-3/4, -y+1/4, x'
'-z-1/4, y, -x-1/4'
'z-1/2, -y-1/4, -x+1/4'
'z, y+1/2, x+1/2'
'-x+1/2, -y, -z+1/2'
'x-1/4, y-1/4, -z'
'x+1/4, -y-1/2, z-1/4'
'-x, y-3/4, z+1/4'
'-z+1/2, -x, -y+1/2'
'-z, x-3/4, y+1/4'
'z-1/4, x-1/4, -y'
'z+1/4, -x-1/2, y-1/4'
'-y+1/2, -z, -x+1/2'
'y+1/4, -z-1/2, x-1/4'
'-y, z-3/4, x+1/4'
'y-1/4, z-1/4, -x'
'-y-1/4, -x-1/4, z'
'y+1/2, x, z+1/2'
'-y+1/4, x-1/2, -z-1/4'
'y, -x-3/4, -z+1/4'
'-x-1/4, -z-1/4, y'
'x, -z-3/4, -y+1/4'
'x+1/2, z, y+1/2'
'-x+1/4, z-1/2, -y-1/4'
'-z-1/4, -y-1/4, x'
'-z+1/4, y-1/2, -x-1/4'
'z, -y-3/4, -x+1/4'
'z+1/2, y, x+1/2'
'-x+1/2, -y+1/2, -z'
'x-1/4, y+1/4, -z-1/2'
'x+1/4, -y, z-3/4'
'-x, y-1/4, z-1/4'
'-z+1/2, -x+1/2, -y'
'-z, x-1/4, y-1/4'
'z-1/4, x+1/4, -y-1/2'
'z+1/4, -x, y-3/4'
'-y+1/2, -z+1/2, -x'
'y+1/4, -z, x-3/4'
'-y, z-1/4, x-1/4'
'y-1/4, z+1/4, -x-1/2'
'-y-1/4, -x+1/4, z-1/2'
'y+1/2, x+1/2, z'
'-y+1/4, x, -z-3/4'
'y, -x-1/4, -z-1/4'
'-x-1/4, -z+1/4, y-1/2'
'x, -z-1/4, -y-1/4'
'x+1/2, z+1/2, y'
'-x+1/4, z, -y-3/4'
'-z-1/4, -y+1/4, x-1/2'
'-z+1/4, y, -x-3/4'
'z, -y-1/4, -x-1/4'
'z+1/2, y+1/2, x'
loop_
_atom_site_label
_atom_site_type_symbol
_atom_site_fract_x
_atom_site_fract_y
_atom_site_fract_z
_atom_site_U_iso_or_equiv
_atom_site_adp_type
_atom_site_occupancy
_atom_site_site_symmetry_order
_atom_site_calc_flag
_atom_site_refinement_flags_posn
_atom_site_refinement_flags_adp
_atom_site_refinement_flags_occupancy
As1 As 0.26453(5) 0.26453(5) 0.26453(5) 0.0097(4) Uani 1 6 d S T P
O1 O 0.3750 0.3750 0.1910(4) 0.0095(9) Uani 1 4 d S T P
loop_
_atom_site_aniso_label
_atom_site_aniso_U_11
_atom_site_aniso_U_22
_atom_site_aniso_U_33
_atom_site_aniso_U_23
_atom_site_aniso_U_13
_atom_site_aniso_U_12
As1 0.0097(4) 0.0097(4) 0.0097(4) -0.00051(17) -0.00051(17) -0.00051(17)
O1 0.0104(13) 0.0104(13) 0.008(2) 0.000 0.000 -0.0003(17)
loop_
_atom_type_symbol
_atom_type_description
_atom_type_scat_dispersion_real
_atom_type_scat_dispersion_imag
_atom_type_scat_source
As As 0.3110 0.7990 'International Tables Vol C Tables 4.2.6.8 and 6.1.1.4'
O O 0.0020 0.0020 'International Tables Vol C Tables 4.2.6.8 and 6.1.1.4'
loop_
_geom_angle_atom_site_label_1
_geom_angle_atom_site_label_2
_geom_angle_atom_site_label_3
_geom_angle
_geom_angle_site_symmetry_1
_geom_angle_site_symmetry_3
O1 As1 O1 97.78(18) . 9
O1 As1 O1 97.78(18) 9 5
O1 As1 O1 97.78(18) . 5
As1 O1 As1 129.6(3) . 26_554
loop_
_geom_bond_atom_site_label_1
_geom_bond_atom_site_label_2
_geom_bond_distance
_geom_bond_site_symmetry_2
As1 O1 1.793(2) .
As1 O1 1.794(2) 5
As1 O1 1.794(2) 9
O1 As1 1.794(2) 26_554
