#------------------------------------------------------------------------------
#$Date: 2015-09-04 08:12:49 +0300 (Fri, 04 Sep 2015) $
#$Revision: 153928 $
#$URL: svn://www.crystallography.net/cod/cif/4/51/35/4513590.cif $
#------------------------------------------------------------------------------
#
# This file is available in the Crystallography Open Database (COD),
# http://www.crystallography.net/
#
# All data on this site have been placed in the public domain by the
# contributors.
#
data_4513590
loop_
_publ_author_name
'Gu\'nka, Piotr A.'
'Dziubek, Kamil F.'
'G\/ladysiak, Andrzej'
'Dranka, Maciej'
'Piechota, Jacek'
'Hanfland, Michael'
'Katrusiak, Andrzej'
'Zachara, Janusz'
_publ_section_title
;
 Compressed Arsenolite As4O6and Its Helium Clathrate As4O6&#x00B7;2He
;
_journal_issue                   8
_journal_name_full               'Crystal Growth &amp; Design'
_journal_page_first              3740
_journal_paper_doi               10.1021/acs.cgd.5b00390
_journal_volume                  15
_journal_year                    2015
_chemical_formula_moiety         'As4 O6'
_chemical_formula_sum            'As4 O6'
_chemical_formula_weight         395.68
_chemical_name_common            arsenolite
_space_group_crystal_system      cubic
_space_group_IT_number           227
_space_group_name_Hall           '-F 4vw 2vw 3'
_space_group_name_H-M_alt        'F d -3 m'
_symmetry_space_group_name_Hall  '-F 4vw 2vw 3'
_symmetry_space_group_name_H-M   'F d -3 m :2'
_atom_sites_solution_primary     direct
_audit_creation_date             2014-10-15
_audit_creation_method
;
Olex2 1.2-beta
(compiled 2014.09.19 svn.r3010 for OlexSys, GUI svn.r4874)
;
_cell_angle_alpha                90
_cell_angle_beta                 90
_cell_angle_gamma                90
_cell_formula_units_Z            8
_cell_length_a                   11.06422(19)
_cell_length_b                   11.06422(19)
_cell_length_c                   11.06422(19)
_cell_measurement_pressure       2e4(5)
_cell_measurement_reflns_used    426
_cell_measurement_temperature    293(2)
_cell_measurement_theta_max      19.9450
_cell_measurement_theta_min      1.8630
_cell_volume                     1354.45(4)
_computing_cell_refinement
;
CrysAlisPro, Agilent Technologies,
Version 1.171.37.34 (release 22-05-2014 CrysAlis171 .NET)
(compiled May 22 2014,16:03:01)
;
_computing_data_collection
;
CrysAlisPro, Agilent Technologies,
Version 1.171.37.34 (release 22-05-2014 CrysAlis171 .NET)
(compiled May 22 2014,16:03:01)
;
_computing_data_reduction
;
CrysAlisPro, Agilent Technologies,
Version 1.171.37.34 (release 22-05-2014 CrysAlis171 .NET)
(compiled May 22 2014,16:03:01)
;
_computing_molecular_graphics    'Olex2 (Dolomanov et al., 2009)'
_computing_publication_material  'Olex2 (Dolomanov et al., 2009)'
_computing_structure_refinement  'ShelXL (Sheldrick, 2008)'
_computing_structure_solution    'ShelXT (Sheldrick, 2008)'
_diffrn_ambient_environment      He
_diffrn_ambient_pressure         2e4(5)
_diffrn_ambient_temperature      293(2)
_diffrn_detector                 'CCD plate'
_diffrn_measured_fraction_theta_full 0.950
_diffrn_measured_fraction_theta_max 0.675
_diffrn_measurement_details
;
  1 phi    148.00  212.00   0.5000    1.0000
omega____ theta____ kappa____ phi______ frames
   0.0000    0.0000    0.0000     -     128
;
_diffrn_measurement_device       'abstract diffractometer'
_diffrn_measurement_device_type
'MAR-CrysAlisPro-abstract goniometer: imported MAR images'
_diffrn_measurement_method       '\p scans'
_diffrn_orient_matrix_UB_11      -0.0289081000
_diffrn_orient_matrix_UB_12      0.0005009000
_diffrn_orient_matrix_UB_13      -0.0238071000
_diffrn_orient_matrix_UB_21      -0.0169826000
_diffrn_orient_matrix_UB_22      0.0257840000
_diffrn_orient_matrix_UB_23      0.0211739000
_diffrn_orient_matrix_UB_31      0.0166793000
_diffrn_orient_matrix_UB_32      0.0271417000
_diffrn_orient_matrix_UB_33      -0.0196635000
_diffrn_radiation_monochromator  synchrotron
_diffrn_radiation_probe          x-ray
_diffrn_radiation_wavelength     0.41427
_diffrn_reflns_av_R_equivalents  0.0268
_diffrn_reflns_av_unetI/netI     0.0205
_diffrn_reflns_laue_measured_fraction_full 0.950
_diffrn_reflns_laue_measured_fraction_max 0.675
_diffrn_reflns_limit_h_max       13
_diffrn_reflns_limit_h_min       -11
_diffrn_reflns_limit_k_max       18
_diffrn_reflns_limit_k_min       -17
_diffrn_reflns_limit_l_max       15
_diffrn_reflns_limit_l_min       -13
_diffrn_reflns_number            665
_diffrn_reflns_point_group_measured_fraction_full 0.950
_diffrn_reflns_point_group_measured_fraction_max 0.675
_diffrn_reflns_theta_full        14.392
_diffrn_reflns_theta_max         20.410
_diffrn_reflns_theta_min         1.858
_diffrn_source                   synchrotron
_exptl_absorpt_coefficient_mu    4.484
_exptl_absorpt_correction_T_max  1.00000
_exptl_absorpt_correction_T_min  0.09677
_exptl_absorpt_correction_type   multi-scan
_exptl_absorpt_process_details
;
CrysAlisPro, Agilent Technologies,
Version 1.171.37.34 (release 22-05-2014 CrysAlis171 .NET)
(compiled May 22 2014,16:03:01)
Empirical absorption correction using spherical harmonics,
 implemented in SCALE3 ABSPACK scaling algorithm.
;
_exptl_crystal_density_diffrn    3.881
_exptl_crystal_description       block
_exptl_crystal_F_000             1440
_exptl_crystal_size_max          0.07
_exptl_crystal_size_mid          0.04
_exptl_crystal_size_min          0.02
_refine_diff_density_max         0.802
_refine_diff_density_min         -0.763
_refine_diff_density_rms         0.167
_refine_ls_extinction_method     none
_refine_ls_goodness_of_fit_ref   1.164
_refine_ls_hydrogen_treatment    undef
_refine_ls_matrix_type           full
_refine_ls_number_parameters     8
_refine_ls_number_reflns         133
_refine_ls_number_restraints     0
_refine_ls_restrained_S_all      1.164
_refine_ls_R_factor_all          0.0342
_refine_ls_R_factor_gt           0.0303
_refine_ls_shift/su_max          0.000
_refine_ls_shift/su_mean         0.000
_refine_ls_structure_factor_coef Fsqd
_refine_ls_weighting_details
'w=1/[\s^2^(Fo^2^)+(0.0180P)^2^+40.4320P] where P=(Fo^2^+2Fc^2^)/3'
_refine_ls_weighting_scheme      calc
_refine_ls_wR_factor_gt          0.0616
_refine_ls_wR_factor_ref         0.0669
_reflns_Friedel_coverage         0.000
_reflns_number_gt                122
_reflns_number_total             133
_reflns_threshold_expression     'I > 2\s(I)'
_cod_data_source_file            cg5b00390_si_002.cif
_cod_data_source_block           marseno_030
_cod_original_cell_volume        1354.45(7)
_cod_database_code               4513590
_shelx_space_group_comment
;
The symmetry employed for this shelxl refinement is uniquely defined
by the following loop, which should always be used as a source of
symmetry information in preference to the above space-group names.
They are only intended as comments.
;
_olex2_refinement_description
;
;
_shelx_res_file
;
    marseno_030.res created by SHELXL-2014/7

TITL marseno_030_a.res in Fd-3m
CELL 0.41427 11.064217 11.064217 11.064217 90 90 90
ZERR 8 0.000192 0.000192 0.000192 0 0 0
LATT 4
SYMM 0.75-X,0.25-Y,0.5+Z
SYMM 0.25-X,0.5+Y,0.75-Z
SYMM 0.5+X,0.75-Y,0.25-Z
SYMM +Z,+X,+Y
SYMM 0.5+Z,0.75-X,0.25-Y
SYMM 0.75-Z,0.25-X,0.5+Y
SYMM 0.25-Z,0.5+X,0.75-Y
SYMM +Y,+Z,+X
SYMM 0.25-Y,0.5+Z,0.75-X
SYMM 0.5+Y,0.75-Z,0.25-X
SYMM 0.75-Y,0.25-Z,0.5+X
SYMM 0.75+Y,0.25+X,0.5-Z
SYMM -Y,-X,-Z
SYMM 0.25+Y,0.5-X,0.75+Z
SYMM 0.5-Y,0.75+X,0.25+Z
SYMM 0.75+X,0.25+Z,0.5-Y
SYMM 0.5-X,0.75+Z,0.25+Y
SYMM -X,-Z,-Y
SYMM 0.25+X,0.5-Z,0.75+Y
SYMM 0.75+Z,0.25+Y,0.5-X
SYMM 0.25+Z,0.5-Y,0.75+X
SYMM 0.5-Z,0.75+Y,0.25+X
SYMM -Z,-Y,-X

SFAC O As
DISP As 0.311 0.799 1882.762
DISP O 0.002 0.002 10.067
UNIT 48 32

L.S. 10
PLAN  20
REM Old TITL marseno_030 in Fd-3m #227
BOND $H
LIST 6
fmap 2
acta
OMIT 0 6 14
OMIT 4 4 4
REM <HKL>E:/X-Ray_Data_Backup/ESRF_id09_2014_10/data/arsenolite/arseno_030/str
REM uct/olex2_marseno_030/marseno_030.hkl</HKL>

WGHT    0.018000   40.431999
FVAR       1.21879
AS1   2    0.272052    0.272052    0.272052    10.16667    0.01995    0.01995 =
         0.01995   -0.00155   -0.00155   -0.00155
O1    1    0.375000    0.375000    0.201008    10.25000    0.02126    0.02126 =
         0.02125    0.00000    0.00000    0.00074
HKLF 4

REM  marseno_030_a.res in Fd-3m
REM R1 =  0.0303 for     122 Fo > 4sig(Fo)  and  0.0342 for all     133 data
REM      8 parameters refined using      0 restraints

END

WGHT      0.0179     40.4280

REM Highest difference peak  0.802,  deepest hole -0.763,  1-sigma level  0.167
Q1    1   0.3750  0.3750  0.3130  10.25000  0.05    0.80
Q2    1   0.2045  0.2045  0.2045  10.16667  0.05    0.62
Q3    1   0.3750  0.3750  0.1631  10.25000  0.05    0.59
Q4    1   0.2934  0.1714  0.1714  10.50000  0.05    0.55
Q5    1   0.5000  0.5000  0.0000  10.08333  0.05    0.51
Q6    1   0.2070  0.1831  0.1252  11.00000  0.05    0.49
Q7    1   0.2903  0.2480  0.2166  11.00000  0.05    0.48
Q8    1   0.2216  0.2216  0.3253  10.50000  0.05    0.48
Q9    1   0.1641  0.1641  0.2552  10.50000  0.05    0.46
Q10   1   0.4105  0.4105  0.2495  10.50000  0.05    0.45
Q11   1   0.3765  0.4342  0.2161  11.00000  0.05    0.45
Q12   1   0.2075  0.2075  0.0425  10.16667  0.05    0.44
Q13   1   0.4713  0.3173  0.2277  11.00000  0.05    0.43
Q14   1   0.3705  0.4294  0.2536  11.00000  0.05    0.41
Q15   1   0.2299  0.2733  0.2733  10.50000  0.05    0.38
Q16   1   0.2506  0.4228  0.2020  11.00000  0.05    0.38
Q17   1   0.4162  0.2884  0.2884  10.50000  0.05    0.37
Q18   1   0.1896  0.2651  0.2651  10.50000  0.05    0.34
Q19   1   0.2603  0.2603  0.0822  10.50000  0.05    0.34
Q20   1   0.1250  0.1250  0.2405  10.25000  0.05    0.32
;
_shelx_res_checksum              50185
_shelx_hkl_file
;
  -1   1   1 164113. 1368.64   1
   1  -1  -1 161685. 1390.88   1
   0  -2   0 20.9565 10.6850   1
   0   2   2 3651.21 274.458   1
   2   0  -2 4096.58 243.592   1
  -1   3   1 5903.05 354.196   1
   1  -3  -1 5734.38 348.911   1
   1  -1  -3 5602.31 341.140   1
  -1   1   3 5432.25 347.231   1
   3  -1  -3 157188. 2057.84   1
  -3   1   3 158869. 2032.70   1
   3  -3  -1 165389. 2189.09   1
   1  -3  -3 156804. 2246.75   1
  -3  -1   3 159766. 1596.72   1
   3   1  -3 160552. 1655.35   1
   3  -3  -3 85328.7 1788.63   1
  -3   3   3 83090.8 1731.02   1
  -2   0   4 12.3126 22.4802   1
  -2   4   0 16.0695 27.7730   1
   4  -2  -2 43465.0 1156.18   1
  -2   4   2 46082.5 1258.61   1
  -2  -2   4 43366.2 774.859   1
  -2   2   4 45717.2 1265.65   1
   2  -2  -4 45576.9 1243.94   1
   2  -4  -2 44365.2 1235.16   1
  -4   2   2 44458.2 1165.20   1
   4  -2  -4 50323.7 1421.00   1
  -4   2   4 51164.5 1410.51   1
  -2   4   4 50708.8 1503.83   1
  -4   4   2 47922.3 1383.10   1
   4  -4  -2 48083.8 1436.78   1
   4   2  -4 49291.4 977.893   1
   2  -4  -4 48693.1 1457.79   1
  -4  -2   4 50617.1 949.265   1
  -4   4   4 260396. 3588.17   1
  -1  -5  -1 78656.9 1416.94   1
  -1  -5   1 78714.2 1143.29   1
   1  -5   1 77798.5 1393.47   1
   1  -5  -1 75294.1 1554.00   1
   1   5   1 78226.0 1429.29   1
   1   5  -1 77834.2 1142.46   1
  -1   5   1 78277.8 1587.50   1
  -1   3   5 23387.4 1051.21   1
   1  -3  -5 22438.8 963.944   1
   3   1  -5 21516.4 726.282   1
  -5   1   3 20293.0 834.521   1
   5   1  -3 20947.9 720.156   1
  -3  -1   5 20945.2 720.967   1
   3  -1  -5 22311.2 888.606   1
   5  -1  -3 21541.3 868.649   1
   1  -5  -3 22261.0 952.229   1
  -3   5   1 22082.8 914.870   1
  -1  -5   3 21806.4 509.573   1
   3  -5  -1 21363.4 928.082   1
  -3   1   5 21670.9 858.906   1
  -1   5   3 23762.5 1018.01   1
  -3   3   5 8321.87 613.699   1
   3  -5  -3 8515.42 634.507   1
   3  -3  -5 7884.25 596.505   1
  -5   3   3 7020.55 546.558   1
   5  -3  -3 6962.09 579.758   1
  -3   5   3 8061.82 613.185   1
  -3  -3   5 7324.17 341.203   1
   5   1  -5 252679. 2875.34   1
   1  -5  -5 246358. 3548.82   1
  -1   5   5 250856. 3597.95   1
  -5  -1   5 241156. 2789.56   1
   5  -1  -5 248482. 3300.73   1
  -5   1   5 242943. 3204.41   1
  -3   5   5 27328.2 1281.05   1
   5  -5  -3 26926.2 1250.19   1
   3  -5  -5 25497.3 1206.74   1
   5   3  -5 26181.1 766.771   1
  -5   3   5 26607.8 1165.33   1
   5  -3  -5 27619.5 1239.93   1
  -5   5   3 25663.9 1150.57   1
   5  -5  -5 134305. 3030.32   1
  -5   5   5 136998. 2939.44   1
   0  -6   0 50.2614 51.4888   1
   0   6   2 2806.46 334.350   1
   0  -6   2 2653.25 248.096   1
   0  -6  -2 2799.02 319.219   1
  -2   6   0 2896.21 319.003   1
   2   6   0 2638.64 259.404   1
  -2   0   6 3157.75 355.979   1
   2  -6   0 2657.88 318.794   1
  -2   6   2 236025. 3202.47   1
  -2   2   6 227589. 3322.90   1
   2  -2  -6 222806. 3166.91   1
   2   6  -2 224927. 1739.91   1
  -2  -6   2 228829. 1776.66   1
   2  -6  -2 236292. 3283.12   1
   0   6   4 54.3014 66.1722   1
   6   0  -4 3.52234 34.5954   1
   0  -6  -4 51.2516 21.3210   1
  -4   6   2 15119.8 874.307   1
  -4  -2   6 16801.4 693.215   1
  -2   6   4 15743.0 941.129   1
   2  -6  -4 14623.3 909.414   1
   4   2  -6 15540.4 637.759   1
  -2   4   6 14906.6 951.416   1
   2  -4  -6 16137.4 953.898   1
   6  -2  -4 15195.3 899.216   1
   4  -6  -2 15262.8 920.240   1
   6   2  -4 15536.5 698.263   1
   4  -2  -6 14862.0 871.784   1
  -6   2   4 14638.0 807.339   1
  -4   2   6 16220.7 896.763   1
  -4   6   4 15077.3 976.729   1
  -6   4   4 14669.0 897.432   1
  -4   4   6 14996.9 952.123   1
   6  -4  -4 14644.3 951.607   1
   4  -4  -6 16064.8 982.235   1
   4  -6  -4 14137.9 984.772   1
  -4  -4   6 16013.3 525.247   1
  -6   0   6 246971. 3257.10   1
   6   0  -6 239845. 3376.54   1
   6  -2  -6 71238.0 2074.76   1
  -6   2   6 71850.1 1969.94   1
  -6  -2   6 73911.9 1531.19   1
  -2   6   6 66490.9 2182.44   1
   6   2  -6 70734.5 1616.14   1
   2  -6  -6 71113.8 2150.71   1
   6  -4  -6 41142.1 1781.26   1
  -4   6   6 40626.8 1744.90   1
   6   6  -4 37268.1 836.667   1
  -6   6   4 37171.6 1574.29   1
   6  -6  -4 37251.6 1683.36   1
   6   4  -6 38214.1 930.936   1
  -6   4   6 39131.0 1620.36   1
   4  -6  -6 38610.6 1645.37   1
   6  -6  -6 21906.2 1415.78   1
  -6   6   6 22118.6 1328.20   1
  -1   7  -1 37409.4 1106.98   1
  -1  -7   1 37821.8 1016.02   1
   1   7   1 38549.0 1197.58   1
   1   7  -1 37887.0 1016.18   1
  -1  -7  -1 36600.9 1106.33   1
  -1   7   1 37950.0 1259.07   1
   1  -7   1 38347.9 1199.33   1
   1  -7  -1 39433.6 1344.06   1
   3  -1  -7 89477.6 2025.46   1
  -3   1   7 84923.5 2050.42   1
   3  -7  -1 81845.6 2083.22   1
  -3  -1   7 86687.5 1812.87   1
   1  -7  -3 82156.8 2037.24   1
  -1   7   3 85324.1 2130.49   1
  -1  -7   3 83430.5 1333.61   1
   1   7   3 85062.3 2028.46   1
   3   7  -1 84107.9 1411.25   1
  -3   7   1 82025.4 1988.12   1
  -3   3   7 233357. 3775.08   1
  -3  -3   7 228936. 2548.42   1
   3  -3  -7 222856. 3567.26   1
  -3   7   3 227255. 3640.22   1
   3  -7  -3 234051. 3808.27   1
   1  -7  -5 15886.1 994.954   1
  -7   1   5 16273.1 895.187   1
   7  -1  -5 16099.9 953.349   1
  -5  -1   7 17384.1 871.321   1
   7   1  -5 16172.1 877.703   1
   5   1  -7 15298.6 763.954   1
   5  -1  -7 16195.1 920.981   1
  -5   1   7 16876.2 944.819   1
  -1   7   5 15848.4 1030.21   1
  -5   7   3 4779.98 567.730   1
   5  -7  -3 4592.50 583.113   1
  -7   3   5 4012.24 475.873   1
  -5  -3   7 5080.79 397.247   1
   7   3  -5 5296.97 449.639   1
  -3   5   7 4399.15 560.489   1
  -3   7   5 5020.46 585.836   1
   3  -5  -7 4559.12 556.942   1
   3  -7  -5 4541.66 550.734   1
  -5   3   7 4961.35 556.175   1
   5  -3  -7 4585.44 546.052   1
   5   3  -7 5042.77 388.226   1
   7  -3  -5 4325.06 540.470   1
  -5   7   5 320.282 166.292   1
  -5   5   7 207.028 151.608   1
   7  -5  -5 96.8745 96.7796   1
  -7   5   5 269.072 138.650   1
  -5  -5   7 640.428 104.359   1
   5  -7  -5 422.157 217.072   1
   7   5  -5 600.392 119.110   1
   5  -5  -7 290.498 176.557   1
  -7  -1   7 40098.8 1353.01   1
  -7   1   7 38703.4 1494.88   1
   7  -1  -7 37368.4 1574.21   1
  -1   7   7 40668.6 1941.11   1
   7   1  -7 39485.0 1451.90   1
   7  -7  -3 89618.6 2974.25   1
   7   3  -7 95462.8 1904.99   1
   3  -7  -7 91682.2 2669.17   1
  -7   7   3 89711.2 2630.89   1
   7  -3  -7 94447.7 2734.01   1
  -7   3   7 90989.0 2457.20   1
  -3   7   7 91105.9 2770.49   1
  -5   7   7 1759.87 409.718   1
   7   5  -7 2102.30 222.292   1
  -7   5   7 1941.20 400.499   1
   7  -7  -5 1688.35 364.804   1
   7  -5  -7 1607.06 404.648   1
  -7   7   5 1964.41 407.755   1
   5  -7  -7 1824.88 382.382   1
  -7   7   7 63958.0 2425.67   1
   7  -7  -7 67690.0 2768.41   1
   0  -8   0 136012. 2366.47   1
   0   8   0 130051. 2279.27   1
   2  -8   0 9.33928 38.0387   1
   0  -8   2 61.4032 50.8071   1
  -2   8   0 91.2478 81.7878   1
   2   8  -2 4903.92 336.341   1
   2  -8   2 4185.78 453.110   1
  -2   8   2 4889.25 522.844   1
   2   8   2 4589.68 478.656   1
  -2  -8   2 4516.52 324.018   1
   2  -8  -2 5133.90 556.925   1
  -4   0   8 50667.5 1556.45   1
   0   8   4 52063.4 1842.98   1
   4   0  -8 52722.6 1564.90   1
   4  -8   0 53971.4 1921.57   1
   0  -8   4 53731.0 1291.58   1
   0  -8  -4 52161.5 1756.01   1
  -4  -2   8 66176.1 1603.48   1
  -4   8   2 66961.3 2024.78   1
   4   8  -2 62986.4 1126.88   1
  -2   8   4 67789.4 2139.08   1
  -4   2   8 65054.4 1945.67   1
   4  -2  -8 68681.1 1997.18   1
   4  -8  -2 66270.7 2143.94   1
  -2  -8   4 59708.9 1004.94   1
   2  -8  -4 63938.7 2049.33   1
  -4  -4   8 12621.8 619.255   1
  -4   4   8 12735.7 960.125   1
  -4   8   4 13014.0 973.248   1
   4  -4  -8 12468.7 938.518   1
   4  -8  -4 13092.2 1032.35   1
   6   0  -8 9.46470 66.7337   1
  -6   0   8 43.6079 75.5114   1
   2  -8  -6 3882.06 536.992   1
   8   2  -6 4334.49 470.138   1
  -6  -2   8 4208.71 424.492   1
  -2   8   6 3830.71 550.092   1
   8  -2  -6 3886.26 535.273   1
  -8   2   6 3964.69 493.764   1
   6   2  -8 4062.83 396.941   1
  -6   8   2 4236.16 576.617   1
   2  -6  -8 3625.77 533.851   1
  -6   2   8 3719.40 505.709   1
   6  -2  -8 4204.91 531.000   1
  -2  -8   6 3020.13 224.337   1
  -2   6   8 4279.02 648.170   1
   6  -8  -2 4119.84 623.194   1
  -6  -4   8 25389.2 844.468   1
  -6   8   4 22336.5 1337.67   1
   4  -6  -8 22672.1 1355.57   1
  -4   6   8 22377.3 1372.33   1
   8  -4  -6 21252.7 1312.33   1
   8   4  -6 22357.7 909.601   1
  -8   4   6 21723.7 1229.37   1
  -6   4   8 22555.3 1309.45   1
  -4  -6   8 19449.1 587.126   1
  -4   8   6 23758.0 1466.15   1
   8  -6  -4 21848.5 1422.17   1
   6  -8  -4 23034.4 1422.83   1
   4  -8  -6 23380.7 1402.15   1
   6  -4  -8 23711.6 1380.39   1
   6  -6  -8 20911.1 1408.97   1
   8  -6  -6 17685.7 1312.22   1
  -8   6   6 18106.9 1228.98   1
  -6   8   6 19221.7 1323.39   1
  -6   6   8 17317.0 1267.45   1
   6  -8  -6 20400.0 1464.29   1
   8   6  -6 15145.4 589.743   1
  -8   0   8 3435.80 455.013   1
   8   0  -8 3448.84 476.894   1
  -2   8   8 109719. 3458.40   1
  -8   2   8 117846. 2978.82   1
  -8  -2   8 121069. 2428.82   1
   2  -8  -8 115423. 3246.64   1
   8   2  -8 115380. 2502.66   1
   8  -2  -8 114039. 3092.44   1
  -4   8   8 10588.9 1059.67   1
   8  -8  -4 9601.11 1056.51   1
   8   4  -8 11583.7 680.131   1
   4  -8  -8 9902.72 956.915   1
   8  -4  -8 10767.9 1035.45   1
  -8   4   8 10385.6 937.130   1
   8  -8  -6 33403.9 1904.22   1
  -6   8   8 37580.7 2035.89   1
  -8   8   6 36302.8 1892.39   1
   6  -8  -8 39255.2 2094.97   1
   8  -6  -8 37721.8 2100.04   1
  -8   6   8 36760.8 1883.86   1
   1  -9   1 92814.7 2154.50   1
   1   9   1 93106.8 2105.85   1
  -1   9  -1 93841.0 2005.63   1
  -1   9   1 92209.7 2186.75   1
   1   9  -1 96000.6 1840.59   1
   1  -9  -1 93160.1 2317.27   1
  -1  -9   1 94409.7 1905.06   1
  -1  -9  -1 93079.0 2037.75   1
  -3   9   1 57552.3 1856.15   1
   3  -9  -1 57185.1 1962.09   1
   3   9  -1 56967.7 1346.37   1
   1   9   3 55571.4 1890.85   1
  -1   9   3 58565.5 1927.87   1
   3  -9   1 53614.8 1830.19   1
  -1  -9  -3 56503.4 1718.78   1
   1  -9   3 56130.5 1613.60   1
   1  -9  -3 58748.2 1933.76   1
   3   9   1 57110.4 1670.38   1
  -1  -9   3 56534.0 1360.46   1
   3  -9  -3 10591.8 912.066   1
  -3   3   9 11883.8 1015.97   1
  -3   9   3 11465.8 895.194   1
  -5  -1   9 70957.2 1918.69   1
  -5   1   9 66059.1 1999.43   1
   1  -9  -5 68851.3 2256.09   1
  -1   9   5 64437.4 2233.39   1
   5  -9  -1 63116.1 2334.71   1
  -1  -9   5 61783.7 1329.63   1
   5  -1  -9 67340.0 1987.37   1
  -5   9   3 9193.65 840.208   1
   5  -9  -3 9941.13 927.460   1
  -5   3   9 9557.30 842.680   1
  -5  -3   9 11172.3 701.099   1
   5   9  -3 8007.56 364.331   1
   3  -5  -9 10081.0 925.393   1
  -3   9   5 9092.24 878.464   1
   5  -3  -9 10163.2 859.025   1
   3  -9  -5 9990.08 896.712   1
  -3   5   9 9840.84 1014.58   1
  -5   5   9 78738.6 2666.17   1
  -5  -5   9 81908.1 1539.56   1
   5  -5  -9 78084.4 2538.93   1
  -5   9   5 79748.2 2683.58   1
   5  -9  -5 79548.4 2821.05   1
  -1   9   7 536.594 210.608   1
   1  -9  -7 693.129 262.801   1
  -7   1   9 908.501 250.627   1
   9   1  -7 939.468 274.946   1
   9  -1  -7 1013.16 289.191   1
   7  -1  -9 1242.28 285.690   1
  -7  -1   9 1212.89 266.828   1
   7   1  -9 1075.96 245.016   1
  -7  -3   9 18219.2 859.538   1
  -3   7   9 17673.3 1390.20   1
   9   3  -7 15820.6 909.272   1
   9  -3  -7 16383.5 1198.44   1
  -3   9   7 15667.5 1214.51   1
  -9   3   7 15690.3 1104.00   1
   7  -9  -3 16689.7 1344.38   1
   3  -9  -7 16346.8 1214.55   1
  -7   9   3 15685.6 1181.67   1
   7   3  -9 18542.9 900.030   1
  -7   3   9 17103.6 1189.28   1
   7  -3  -9 17645.8 1241.81   1
   3  -7  -9 16865.9 1289.12   1
   9   5  -7 533.411 156.662   1
  -7   5   9 452.047 230.208   1
   7  -9  -5 225.291 166.582   1
  -7   9   5 60.4509 91.7559   1
   9  -5  -7 427.961 196.964   1
  -9   5   7 830.131 249.093   1
   9  -7  -5 474.674 238.836   1
  -5   7   9 298.282 231.066   1
   5  -7  -9 654.829 248.063   1
   7  -5  -9 282.800 138.144   1
   5  -9  -7 591.729 246.009   1
  -5   9   7 361.466 215.233   1
  -9   7   7 7836.63 883.776   1
   9   7  -7 6800.58 375.283   1
  -7   7   9 8574.63 963.100   1
  -7   9   7 8297.92 969.727   1
  -9   1   9 13777.8 1007.70   1
  -9  -1   9 12643.9 861.986   1
   9  -1  -9 13095.7 1063.00   1
   9   1  -9 13560.6 986.289   1
  -9   3   9 5448.60 709.654   1
  -3   9   9 5894.59 859.295   1
   9   3  -9 5987.67 590.216   1
   9  -3  -9 4817.99 708.660   1
  -9   5   9 32428.1 1855.46   1
   9   5  -9 34367.1 1175.46   1
   9  -5  -9 31597.7 1965.54   1
   2 -10   0 21108.4 1193.20   1
  -2  10   0 20156.5 1049.23   1
   2  10   0 21898.3 996.212   1
   0  10   2 20850.8 1118.46   1
   0 -10  -2 22664.5 1180.12   1
   0 -10   2 21008.7 1000.69   1
   2  10  -2 6756.69 469.606   1
   2 -10   2 6086.12 643.706   1
  -2  10   2 6243.26 643.283   1
  -2 -10   2 6956.10 482.057   1
   2 -10  -2 6674.31 702.684   1
   2  10   2 7615.63 709.259   1
   0  10   4 2.25105 83.1682   1
   4 -10   0 85.7336 117.836   1
   4  10   0 46.4943 47.5389   1
   4 -10  -2 17988.3 1245.14   1
  -4  10   2 17702.4 1155.60   1
  -2 -10   4 16648.3 659.912   1
   4  10  -2 18379.9 751.366   1
  -2  10   4 17411.6 1178.99   1
   2 -10  -4 17505.6 1170.87   1
  -4  -2  10 18628.0 1071.13   1
  -4   2  10 17724.0 1213.09   1
  -4   4  10 492.727 195.552   1
  -4  10   4 435.745 190.633   1
   4  -4 -10 639.711 235.874   1
  -4  -4  10 1010.39 237.108   1
   4 -10  -4 233.083 140.010   1
  -6   0  10 66850.0 2117.87   1
   6   0 -10 66680.0 2031.15   1
   0  10   6 63778.9 2504.50   1
  -2  10   6 1161.03 323.231   1
   6 -10  -2 1074.05 303.735   1
   6  -2 -10 1600.00 344.284   1
  -6   2  10 1252.35 317.263   1
   2 -10  -6 1235.06 317.976   1
  -6  -2  10 1182.66 251.014   1
  -6  10   2 1479.94 342.215   1
   6  10  -2 1072.92 188.213   1
  -2 -10   6 1004.01 147.761   1
   6 -10  -4 58694.2 2516.77   1
  -4   6  10 62029.0 2645.50   1
  -6  10   4 61870.7 2428.97   1
  -6   4  10 60149.1 2321.09   1
   4  -6 -10 64045.0 2550.48   1
  -6  -4  10 67879.1 1683.70   1
  -4  10   6 62621.7 2515.62   1
   4 -10  -6 62211.8 2523.53   1
   6  -4 -10 63498.1 2410.86   1
  -4  -6  10 61889.8 1542.58   1
  -6  10   6 265.926 158.111   1
   6  -6 -10 40.3569 54.0882   1
  -6   6  10 80.9220 76.9530   1
  -6  -6  10 76.0261 60.1148   1
  10   0  -8 10.2090 54.3179   1
   8   0 -10 85.4950 79.4741   1
  -8  -2  10 21.8628 35.9781   1
  10   2  -8 109.905 123.097   1
  10  -2  -8 263.464 177.111   1
  -8   2  10 52.6444 76.2746   1
   8   2 -10 1.75088 70.3239   1
  10  -4  -8 1137.37 361.282   1
 -10   4   8 507.909 226.829   1
  -4  -8  10 695.123 114.573   1
  -8   4  10 938.192 310.729   1
  -4   8  10 528.789 222.066   1
  -8  10   4 678.325 302.526   1
  -4  10   8 523.831 234.294   1
   8  -4 -10 1647.88 385.473   1
  -8  -4  10 1500.64 286.007   1
   8  10  -4 442.074 80.3673   1
  10   4  -8 479.124 186.355   1
  10   8  -6 8072.82 530.135   1
 -10   6   8 8269.73 933.880   1
  10   6  -8 10692.4 705.005   1
  -8   6  10 8541.04 970.450   1
 -10   0  10 84497.3 2456.58   1
  10   0 -10 84621.2 2696.93   1
 -10   2  10 46.9449 140.240   1
 -10   4  10 52500.6 2395.01   1
  10   4 -10 56135.5 1917.24   1
  -1  11  -1 67038.1 1888.09   1
   1  11   1 67119.9 1977.04   1
  -1 -11  -1 69052.0 1997.96   1
   1 -11  -1 69158.7 2198.95   1
  -1 -11   1 70032.0 1894.78   1
  -1  11   1 64510.6 1985.83   1
   1 -11   1 65171.9 2042.33   1
   1  11  -1 68053.6 1772.31   1
   3 -11  -1 34710.6 1723.70   1
   3  11   1 34464.3 1452.25   1
   1  11   3 33141.4 1596.86   1
  -3  11   1 30598.4 1466.27   1
   1 -11   3 35098.8 1480.64   1
   3 -11   1 34837.3 1654.46   1
  -1  11   3 31755.7 1555.28   1
   3  11  -1 33882.9 1231.35   1
   1 -11  -3 35086.5 1660.56   1
  -1 -11   3 32191.4 1158.72   1
   3 -11  -3 37601.2 1792.98   1
  -3  11   3 35853.6 1673.00   1
   5  11  -1 13126.6 755.317   1
  -1 -11   5 11066.9 611.856   1
  -5  -1  11 13801.4 979.808   1
  -5   1  11 12956.8 1016.96   1
  -1  11   5 14085.9 1142.54   1
   5 -11  -1 12670.0 1147.34   1
   1 -11  -5 13425.7 1080.58   1
   1  11   5 14486.3 1215.52   1
   5 -11  -3 6646.55 834.401   1
  -5  -3  11 8446.69 709.819   1
  -5   3  11 6823.71 826.057   1
  -5  11   3 7362.04 822.891   1
  -3  11   5 7514.89 858.195   1
   3 -11  -5 7405.14 849.030   1
   5  11  -3 8278.87 460.402   1
   5  -3 -11 7546.25 782.513   1
  -5  -5  11 37955.7 1323.42   1
  -5   5  11 37325.9 2010.80   1
   5  -5 -11 37183.4 1983.79   1
   5 -11  -5 37476.8 2090.19   1
  -5  11   5 34875.0 1877.69   1
  -1  11   7 12146.9 1169.24   1
   1 -11  -7 11957.5 1098.79   1
  -7   1  11 11947.5 1024.67   1
   7  -1 -11 12929.1 999.616   1
  -7  -1  11 13600.4 998.209   1
   7  11  -3 16904.8 715.616   1
  -3  11   7 19892.6 1488.32   1
  -7  11   3 21541.9 1507.52   1
  -7   3  11 18963.5 1338.48   1
   7  -3 -11 21768.9 1450.32   1
  -7  -3  11 22965.8 1128.99   1
  -5  -7  11 593.364 150.369   1
  -7  -5  11 1003.83 233.776   1
  -7   5  11 585.547 257.788   1
  11   7  -7 16388.5 984.560   1
  11   1  -9 3857.38 627.565   1
  11  -1  -9 3374.35 666.488   1
  -9  -1  11 2977.54 453.598   1
   9   1 -11 3085.51 486.280   1
   9  -1 -11 3434.28 576.149   1
  -9   1  11 3739.83 587.904   1
  11  -3  -9 11.7456 99.3131   1
   9   3 -11 145.514 122.281   1
 -11   3   9 3.17720 70.3265   1
   9  -3 -11 3.18964 116.841   1
  -9   3  11 17.5229 88.6393   1
  -9  -3  11 148.668 137.539   1
  11   5  -9 10769.5 856.765   1
 -11   1  11 189.442 185.187   1
  11   1 -11 124.464 81.3765   1
  11   3 -11 3890.04 589.471   1
   0 -12   0 12226.8 901.752   1
   0  12   0 11547.8 840.558   1
   0  12   2 74.7696 76.3500   1
   0 -12   2 40.2983 30.0708   1
   2 -12   0 57.6337 107.212   1
   2 -12   2 91.4738 108.481   1
  -2 -12   2 155.945 118.585   1
  -2  12   2 113.321 70.8480   1
   2 -12  -2 161.564 143.967   1
   4  12   0 40.3599 67.6986   1
   4 -12   0 97.8717 90.8181   1
   0  12   4 124.861 133.110   1
   2  12   4 32881.7 1846.99   1
  -4  12   2 29721.6 1607.18   1
  -2  12   4 29626.7 1641.04   1
  -2 -12   4 31331.6 1080.00   1
   2 -12  -4 33038.3 1798.83   1
   4  12  -2 33017.9 1122.23   1
   4 -12  -2 31671.9 1845.93   1
  -4  12   4 1116.65 340.290   1
   4 -12  -4 690.412 302.572   1
   6 -12  -2 320.882 237.679   1
   6  12  -2 290.303 111.763   1
  -6   2  12 2.80819 94.2521   1
  -6  -2  12 361.719 190.784   1
  -2  12   6 151.092 163.033   1
  -2 -12   6 283.503 91.7063   1
  -6  12   4 10849.8 1098.98   1
  -6   4  12 9815.82 1073.21   1
  -6  -4  12 12698.9 874.674   1
   6  -4 -12 10912.4 1061.19   1
  -4  12   6 9792.59 1098.73   1
  -6  -6  12 2621.56 377.828   1
  -8   0  12 1335.69 381.659   1
   8   0 -12 1797.93 393.379   1
   8  -2 -12 56183.2 2347.77   1
  -8   2  12 56359.4 2441.56   1
  -8  -2  12 59629.3 2103.31   1
  -2 -12   8 53678.2 1581.26   1
  -8   4  12 230.521 196.550   1
  -8  -4  12 512.029 178.313   1
 -10   0  12 17.7305 55.2319   1
  12   0 -10 309.389 314.200   1
 -10   2  12 114.125 162.389   1
  10   2 -12 33.4867 81.6701   1
  12   2 -10 182.800 193.165   1
  12   4 -10 614.091 254.209   1
  12   0 -12 188.943 216.021   1
  12   2 -12 30995.0 1822.21   1
   1  13  -1 22404.5 1131.14   1
  -1  13  -1 21537.1 1201.82   1
  -1 -13  -1 23621.5 1325.59   1
  -1 -13   1 22713.1 1188.16   1
   1  13   1 21196.7 1234.96   1
   1 -13  -1 20726.0 1292.29   1
   1 -13   1 18875.6 1169.99   1
  -1  13   1 21049.1 1257.64   1
   1 -13   3 16233.4 1077.85   1
   3 -13   1 17913.5 1372.80   1
  -3  13   1 16525.7 1172.69   1
   3  13   1 18979.6 1176.60   1
   1  13   3 17338.5 1235.08   1
  -1  13   3 15466.1 1172.57   1
   1 -13  -3 18277.6 1320.67   1
  -1 -13   3 16780.3 936.435   1
   3  13  -1 18933.8 1004.17   1
   3 -13  -1 16878.4 1344.16   1
   3 -13  -3 38180.7 2000.69   1
  -3  13   3 38288.4 1880.96   1
   5 -13  -1 12218.0 1227.19   1
   1  13   5 14116.0 1284.52   1
   5  13  -1 14545.8 927.218   1
  -1  13   5 11717.5 1119.07   1
   1 -13  -5 13751.9 1233.87   1
  -1 -13   5 12531.4 750.753   1
  -5  13   3 2342.10 476.582   1
  -3  13   5 3179.46 588.105   1
  -7  -1  13 4595.54 636.854   1
  -7   1  13 3947.82 635.402   1
  -7   3  13 13756.7 1243.04   1
  -7  -3  13 15062.1 1086.21   1
  -9   1  13 188.620 145.589   1
   9  -1 -13 117.202 83.5176   1
  -9  -3  13 2500.12 447.616   1
  13   1 -11 422.890 366.919   1
 -11   1  13 474.961 257.449   1
  13   3 -11 4332.38 775.036   1
   0  14   0 29.9589 54.4108   1
  -2  14   0 7102.41 765.878   1
   0 -14  -2 7485.33 816.564   1
   0  14   2 6635.56 749.696   1
   0 -14   2 6694.21 660.120   1
   2  14   0 7066.56 705.730   1
   2 -14   0 6080.25 746.731   1
  -2  14   2 8872.77 939.565   1
   2  14  -2 12049.6 913.307   1
   2  14   2 9756.06 912.249   1
  -2 -14   2 10544.4 799.860   1
   2 -14  -2 8718.22 931.816   1
   2 -14   2 8271.42 932.624   1
   4 -14   0 132.779 201.117   1
   0 -14  -4 6.10141 92.5289   1
   4  14   0 39.1716 41.2582   1
   0  14   4 276.800 164.762   1
   0 -14   4 7.79290 62.8555   1
  -2  14   4 682.295 260.393   1
   2  14   4 522.341 224.891   1
  -4  14   2 363.852 177.739   1
   4  14  -2 455.415 166.029   1
   0 -14   6 197316. 8723.07   1
   6  14  -2 6002.97 648.477   1
  -8   0  14 287.347 172.875   1
  -8  -2  14 2275.68 455.666   1
  -8   2  14 2296.22 528.310   1
  -8  -4  14 383.794 313.590   1
 -10   0  14 26087.6 1701.94   1
 -10  -2  14 328.425 209.530   1
  -1  15   1 15230.3 1189.43   1
   1  15  -1 15723.0 1030.61   1
  -1 -15  -1 16381.6 1198.09   1
  -1 -15   1 15752.9 1075.11   1
   1 -15  -1 14131.4 1126.38   1
   1 -15   1 13068.6 1046.44   1
   1  15   1 14587.9 1087.08   1
   3  15  -1 3747.25 506.485   1
   3 -15   1 2575.60 578.185   1
  -3  15   1 3174.29 558.147   1
  -1  15   3 3358.29 584.972   1
   1 -15  -3 2761.08 551.066   1
  -1 -15   3 3031.41 475.783   1
   1  15   3 3733.35 638.748   1
   3  15   1 3045.76 501.279   1
   3 -15  -1 2542.00 539.922   1
   1 -15   3 3458.98 554.485   1
   3  15   3 7101.58 832.069   1
   5  15  -1 21472.0 1399.41   1
  -1 -15   5 25154.5 1609.76   1
  -9  -1  15 4843.55 739.675   1
 -11  -1  15 1010.57 384.984   1
   0  16   0 8795.77 874.935   1
   0 -16   0 8960.88 883.484   1
   0 -16  -2 94.0932 61.2071   1
   0  16   2 2.84858 80.7883   1
   2  16   0 144.813 116.820   1
  -2  16   2 164.222 160.882   1
   2 -16   2 3.82736 99.6544   1
   2  16   2 350.709 188.696   1
   4  16   0 17946.4 1372.14   1
   0 -16   4 25718.0 2067.51   1
   2  16   4 5621.75 788.993   1
  -1  17   1 4208.05 666.339   1
  -1 -17   1 4477.20 670.093   1
   1 -17   1 3486.31 648.790   1
   1  17   1 4148.66 689.959   1
   1  17  -1 4480.80 696.836   1
   1  17   3 3418.78 627.197   1
   3  17   1 4050.68 675.794   1
   2  18   0 1296.77 421.645   1
   2  18   2 13111.9 1273.79   1
   0   0   0    0.00    0.00   0
TITL marseno_030 in Fd-3m
REM Fd-3m (#227 in standard setting)
CELL 0.41427  11.064217  11.064217  11.064217  90.0000  90.0000  90.0000
ZERR    6.00   0.000192   0.000192   0.000192   0.0000   0.0000   0.0000
LATT  4
SYMM -x+3/4,-y+1/4, z+1/2
SYMM -x+1/4, y+1/2,-z+3/4
SYMM  x+1/2,-y+3/4,-z+1/4
SYMM  z, x, y
SYMM  z+1/2,-x+3/4,-y+1/4
SYMM -z+3/4,-x+1/4, y+1/2
SYMM -z+1/4, x+1/2,-y+3/4
SYMM  y, z, x
SYMM -y+1/4, z+1/2,-x+3/4
SYMM  y+1/2,-z+3/4,-x+1/4
SYMM -y+3/4,-z+1/4, x+1/2
SYMM  y+3/4, x+1/4,-z+1/2
SYMM -y,-x,-z
SYMM  y+1/4,-x+1/2, z+3/4
SYMM -y+1/2, x+3/4, z+1/4
SYMM  x+3/4, z+1/4,-y+1/2
SYMM -x+1/2, z+3/4, y+1/4
SYMM -x,-z,-y
SYMM  x+1/4,-z+1/2, y+3/4
SYMM  z+3/4, y+1/4,-x+1/2
SYMM  z+1/4,-y+1/2, x+3/4
SYMM -z+1/2, y+3/4, x+1/4
SYMM -z,-y,-x
SFAC O As
UNIT 36.00 24.00
TREF
HKLF 4
END
;
_shelx_hkl_checksum              2277
_shelx_shelxl_version_number     2014/7
loop_
_space_group_symop_operation_xyz
'x, y, z'
'-x+3/4, -y+1/4, z+1/2'
'-x+1/4, y+1/2, -z+3/4'
'x+1/2, -y+3/4, -z+1/4'
'z, x, y'
'z+1/2, -x+3/4, -y+1/4'
'-z+3/4, -x+1/4, y+1/2'
'-z+1/4, x+1/2, -y+3/4'
'y, z, x'
'-y+1/4, z+1/2, -x+3/4'
'y+1/2, -z+3/4, -x+1/4'
'-y+3/4, -z+1/4, x+1/2'
'y+3/4, x+1/4, -z+1/2'
'-y, -x, -z'
'y+1/4, -x+1/2, z+3/4'
'-y+1/2, x+3/4, z+1/4'
'x+3/4, z+1/4, -y+1/2'
'-x+1/2, z+3/4, y+1/4'
'-x, -z, -y'
'x+1/4, -z+1/2, y+3/4'
'z+3/4, y+1/4, -x+1/2'
'z+1/4, -y+1/2, x+3/4'
'-z+1/2, y+3/4, x+1/4'
'-z, -y, -x'
'x, y+1/2, z+1/2'
'-x+3/4, -y+3/4, z+1'
'-x+1/4, y+1, -z+5/4'
'x+1/2, -y+5/4, -z+3/4'
'z, x+1/2, y+1/2'
'z+1/2, -x+5/4, -y+3/4'
'-z+3/4, -x+3/4, y+1'
'-z+1/4, x+1, -y+5/4'
'y, z+1/2, x+1/2'
'-y+1/4, z+1, -x+5/4'
'y+1/2, -z+5/4, -x+3/4'
'-y+3/4, -z+3/4, x+1'
'y+3/4, x+3/4, -z+1'
'-y, -x+1/2, -z+1/2'
'y+1/4, -x+1, z+5/4'
'-y+1/2, x+5/4, z+3/4'
'x+3/4, z+3/4, -y+1'
'-x+1/2, z+5/4, y+3/4'
'-x, -z+1/2, -y+1/2'
'x+1/4, -z+1, y+5/4'
'z+3/4, y+3/4, -x+1'
'z+1/4, -y+1, x+5/4'
'-z+1/2, y+5/4, x+3/4'
'-z, -y+1/2, -x+1/2'
'x+1/2, y, z+1/2'
'-x+5/4, -y+1/4, z+1'
'-x+3/4, y+1/2, -z+5/4'
'x+1, -y+3/4, -z+3/4'
'z+1/2, x, y+1/2'
'z+1, -x+3/4, -y+3/4'
'-z+5/4, -x+1/4, y+1'
'-z+3/4, x+1/2, -y+5/4'
'y+1/2, z, x+1/2'
'-y+3/4, z+1/2, -x+5/4'
'y+1, -z+3/4, -x+3/4'
'-y+5/4, -z+1/4, x+1'
'y+5/4, x+1/4, -z+1'
'-y+1/2, -x, -z+1/2'
'y+3/4, -x+1/2, z+5/4'
'-y+1, x+3/4, z+3/4'
'x+5/4, z+1/4, -y+1'
'-x+1, z+3/4, y+3/4'
'-x+1/2, -z, -y+1/2'
'x+3/4, -z+1/2, y+5/4'
'z+5/4, y+1/4, -x+1'
'z+3/4, -y+1/2, x+5/4'
'-z+1, y+3/4, x+3/4'
'-z+1/2, -y, -x+1/2'
'x+1/2, y+1/2, z'
'-x+5/4, -y+3/4, z+1/2'
'-x+3/4, y+1, -z+3/4'
'x+1, -y+5/4, -z+1/4'
'z+1/2, x+1/2, y'
'z+1, -x+5/4, -y+1/4'
'-z+5/4, -x+3/4, y+1/2'
'-z+3/4, x+1, -y+3/4'
'y+1/2, z+1/2, x'
'-y+3/4, z+1, -x+3/4'
'y+1, -z+5/4, -x+1/4'
'-y+5/4, -z+3/4, x+1/2'
'y+5/4, x+3/4, -z+1/2'
'-y+1/2, -x+1/2, -z'
'y+3/4, -x+1, z+3/4'
'-y+1, x+5/4, z+1/4'
'x+5/4, z+3/4, -y+1/2'
'-x+1, z+5/4, y+1/4'
'-x+1/2, -z+1/2, -y'
'x+3/4, -z+1, y+3/4'
'z+5/4, y+3/4, -x+1/2'
'z+3/4, -y+1, x+3/4'
'-z+1, y+5/4, x+1/4'
'-z+1/2, -y+1/2, -x'
'-x, -y, -z'
'x-3/4, y-1/4, -z-1/2'
'x-1/4, -y-1/2, z-3/4'
'-x-1/2, y-3/4, z-1/4'
'-z, -x, -y'
'-z-1/2, x-3/4, y-1/4'
'z-3/4, x-1/4, -y-1/2'
'z-1/4, -x-1/2, y-3/4'
'-y, -z, -x'
'y-1/4, -z-1/2, x-3/4'
'-y-1/2, z-3/4, x-1/4'
'y-3/4, z-1/4, -x-1/2'
'-y-3/4, -x-1/4, z-1/2'
'y, x, z'
'-y-1/4, x-1/2, -z-3/4'
'y-1/2, -x-3/4, -z-1/4'
'-x-3/4, -z-1/4, y-1/2'
'x-1/2, -z-3/4, -y-1/4'
'x, z, y'
'-x-1/4, z-1/2, -y-3/4'
'-z-3/4, -y-1/4, x-1/2'
'-z-1/4, y-1/2, -x-3/4'
'z-1/2, -y-3/4, -x-1/4'
'z, y, x'
'-x, -y+1/2, -z+1/2'
'x-3/4, y+1/4, -z'
'x-1/4, -y, z-1/4'
'-x-1/2, y-1/4, z+1/4'
'-z, -x+1/2, -y+1/2'
'-z-1/2, x-1/4, y+1/4'
'z-3/4, x+1/4, -y'
'z-1/4, -x, y-1/4'
'-y, -z+1/2, -x+1/2'
'y-1/4, -z, x-1/4'
'-y-1/2, z-1/4, x+1/4'
'y-3/4, z+1/4, -x'
'-y-3/4, -x+1/4, z'
'y, x+1/2, z+1/2'
'-y-1/4, x, -z-1/4'
'y-1/2, -x-1/4, -z+1/4'
'-x-3/4, -z+1/4, y'
'x-1/2, -z-1/4, -y+1/4'
'x, z+1/2, y+1/2'
'-x-1/4, z, -y-1/4'
'-z-3/4, -y+1/4, x'
'-z-1/4, y, -x-1/4'
'z-1/2, -y-1/4, -x+1/4'
'z, y+1/2, x+1/2'
'-x+1/2, -y, -z+1/2'
'x-1/4, y-1/4, -z'
'x+1/4, -y-1/2, z-1/4'
'-x, y-3/4, z+1/4'
'-z+1/2, -x, -y+1/2'
'-z, x-3/4, y+1/4'
'z-1/4, x-1/4, -y'
'z+1/4, -x-1/2, y-1/4'
'-y+1/2, -z, -x+1/2'
'y+1/4, -z-1/2, x-1/4'
'-y, z-3/4, x+1/4'
'y-1/4, z-1/4, -x'
'-y-1/4, -x-1/4, z'
'y+1/2, x, z+1/2'
'-y+1/4, x-1/2, -z-1/4'
'y, -x-3/4, -z+1/4'
'-x-1/4, -z-1/4, y'
'x, -z-3/4, -y+1/4'
'x+1/2, z, y+1/2'
'-x+1/4, z-1/2, -y-1/4'
'-z-1/4, -y-1/4, x'
'-z+1/4, y-1/2, -x-1/4'
'z, -y-3/4, -x+1/4'
'z+1/2, y, x+1/2'
'-x+1/2, -y+1/2, -z'
'x-1/4, y+1/4, -z-1/2'
'x+1/4, -y, z-3/4'
'-x, y-1/4, z-1/4'
'-z+1/2, -x+1/2, -y'
'-z, x-1/4, y-1/4'
'z-1/4, x+1/4, -y-1/2'
'z+1/4, -x, y-3/4'
'-y+1/2, -z+1/2, -x'
'y+1/4, -z, x-3/4'
'-y, z-1/4, x-1/4'
'y-1/4, z+1/4, -x-1/2'
'-y-1/4, -x+1/4, z-1/2'
'y+1/2, x+1/2, z'
'-y+1/4, x, -z-3/4'
'y, -x-1/4, -z-1/4'
'-x-1/4, -z+1/4, y-1/2'
'x, -z-1/4, -y-1/4'
'x+1/2, z+1/2, y'
'-x+1/4, z, -y-3/4'
'-z-1/4, -y+1/4, x-1/2'
'-z+1/4, y, -x-3/4'
'z, -y-1/4, -x-1/4'
'z+1/2, y+1/2, x'
loop_
_atom_site_label
_atom_site_type_symbol
_atom_site_fract_x
_atom_site_fract_y
_atom_site_fract_z
_atom_site_U_iso_or_equiv
_atom_site_adp_type
_atom_site_occupancy
_atom_site_site_symmetry_order
_atom_site_calc_flag
_atom_site_refinement_flags_posn
_atom_site_refinement_flags_adp
_atom_site_refinement_flags_occupancy
As1 As 0.27205(4) 0.27205(4) 0.27205(4) 0.0200(3) Uani 1 6 d S T P
O1 O 0.3750 0.3750 0.2010(5) 0.0213(9) Uani 1 4 d S T P
loop_
_atom_site_aniso_label
_atom_site_aniso_U_11
_atom_site_aniso_U_22
_atom_site_aniso_U_33
_atom_site_aniso_U_23
_atom_site_aniso_U_13
_atom_site_aniso_U_12
As1 0.0200(3) 0.0200(3) 0.0200(3) -0.00155(17) -0.00155(17) -0.00155(17)
O1 0.0213(14) 0.0213(14) 0.021(2) 0.000 0.000 0.0007(18)
loop_
_atom_type_symbol
_atom_type_description
_atom_type_scat_dispersion_real
_atom_type_scat_dispersion_imag
_atom_type_scat_source
O O 0.0020 0.0020 'International Tables Vol C Tables 4.2.6.8 and 6.1.1.4'
As As 0.3110 0.7990 'International Tables Vol C Tables 4.2.6.8 and 6.1.1.4'
loop_
_geom_angle_atom_site_label_1
_geom_angle_atom_site_label_2
_geom_angle_atom_site_label_3
_geom_angle
_geom_angle_site_symmetry_1
_geom_angle_site_symmetry_3
O1 As1 O1 98.83(19) 9 5
O1 As1 O1 98.83(19) 5 .
O1 As1 O1 98.83(19) 9 .
As1 O1 As1 128.0(3) . 26_554
loop_
_geom_bond_atom_site_label_1
_geom_bond_atom_site_label_2
_geom_bond_distance
_geom_bond_site_symmetry_2
As1 O1 1.792(2) 9
As1 O1 1.792(2) .
As1 O1 1.792(2) 5
O1 As1 1.792(2) 26_554
