#------------------------------------------------------------------------------
#$Date: 2015-09-04 08:12:49 +0300 (Fri, 04 Sep 2015) $
#$Revision: 153928 $
#$URL: svn://www.crystallography.net/cod/cif/4/51/35/4513582.cif $
#------------------------------------------------------------------------------
#
# This file is available in the Crystallography Open Database (COD),
# http://www.crystallography.net/
#
# All data on this site have been placed in the public domain by the
# contributors.
#
data_4513582
loop_
_publ_author_name
'Gu\'nka, Piotr A.'
'Dziubek, Kamil F.'
'G\/ladysiak, Andrzej'
'Dranka, Maciej'
'Piechota, Jacek'
'Hanfland, Michael'
'Katrusiak, Andrzej'
'Zachara, Janusz'
_publ_section_title
;
 Compressed Arsenolite As4O6and Its Helium Clathrate As4O6&#x00B7;2He
;
_journal_issue                   8
_journal_name_full               'Crystal Growth &amp; Design'
_journal_page_first              3740
_journal_paper_doi               10.1021/acs.cgd.5b00390
_journal_volume                  15
_journal_year                    2015
_chemical_formula_moiety         '2(As2 O3)'
_chemical_formula_sum            'As4 O6'
_chemical_formula_weight         395.69
_space_group_crystal_system      cubic
_space_group_IT_number           227
_space_group_name_Hall           '-F 4vw 2vw 3'
_space_group_name_H-M_alt        'F d -3 m'
_symmetry_space_group_name_Hall  '-F 4vw 2vw 3'
_symmetry_space_group_name_H-M   'F d -3 m :2'
_atom_sites_solution_primary     direct
_audit_creation_date             2015-01-22
_audit_creation_method
;
Olex2 1.2-beta
(compiled 2015.01.19 svn.r3143 for OlexSys, GUI svn.r4992)
;
_cell_angle_alpha                90
_cell_angle_beta                 90
_cell_angle_gamma                90
_cell_formula_units_Z            8
_cell_length_a                   9.5895(4)
_cell_length_b                   9.5895(4)
_cell_length_c                   9.5895(4)
_cell_measurement_pressure       2.502e7(7)
_cell_measurement_reflns_used    221
_cell_measurement_temperature    293(2)
_cell_measurement_theta_max      19.9930
_cell_measurement_theta_min      2.1350
_cell_volume                     881.84(6)
_computing_cell_refinement
'CrysAlisPro, Agilent Technologies, Version 1.171.37.34 (release 22-05-2014 CrysAlis171 .NET) (compiled May 22 2014,16:03:01)'
_computing_data_collection
'CrysAlisPro, Agilent Technologies, Version 1.171.37.34 (release 22-05-2014 CrysAlis171 .NET) (compiled May 22 2014,16:03:01)'
_computing_data_reduction
'CrysAlisPro, Agilent Technologies, Version 1.171.37.34 (release 22-05-2014 CrysAlis171 .NET) (compiled May 22 2014,16:03:01)'
_computing_molecular_graphics    'Olex2 (Dolomanov et al., 2009)'
_computing_publication_material  'Olex2 (Dolomanov et al., 2009)'
_computing_structure_refinement  'ShelXL (Sheldrick, 2008)'
_computing_structure_solution    'ShelXT (Sheldrick, 2015)'
_diffrn_ambient_environment      He
_diffrn_ambient_pressure         2.502e7(7)
_diffrn_ambient_temperature      293(2)
_diffrn_detector                 'CCD plate'
_diffrn_measured_fraction_theta_full 0.786
_diffrn_measured_fraction_theta_max 0.608
_diffrn_measurement_details
;
  1 phi    148.00  212.00   0.5000    1.0000
omega____ theta____ kappa____ phi______ frames
   0.0000    0.0000    0.0000     -     128
;
_diffrn_measurement_device       'abstract diffractometer'
_diffrn_measurement_device_type
'MAR-CrysAlisPro-abstract goniometer: imported MAR images'
_diffrn_measurement_method       '\p scans'
_diffrn_orient_matrix_UB_11      0.0350032000
_diffrn_orient_matrix_UB_12      -0.0253317000
_diffrn_orient_matrix_UB_13      0.0007934000
_diffrn_orient_matrix_UB_21      0.0172841000
_diffrn_orient_matrix_UB_22      0.0249734000
_diffrn_orient_matrix_UB_23      0.0307148000
_diffrn_orient_matrix_UB_31      -0.0184360000
_diffrn_orient_matrix_UB_32      -0.0245400000
_diffrn_orient_matrix_UB_33      0.0303868000
_diffrn_radiation_monochromator  synchrotron
_diffrn_radiation_probe          x-ray
_diffrn_radiation_wavelength     0.41427
_diffrn_reflns_av_R_equivalents  0.0341
_diffrn_reflns_av_unetI/netI     0.0271
_diffrn_reflns_laue_measured_fraction_full 0.786
_diffrn_reflns_laue_measured_fraction_max 0.608
_diffrn_reflns_limit_h_max       16
_diffrn_reflns_limit_h_min       -15
_diffrn_reflns_limit_k_max       13
_diffrn_reflns_limit_k_min       -12
_diffrn_reflns_limit_l_max       11
_diffrn_reflns_limit_l_min       -9
_diffrn_reflns_number            380
_diffrn_reflns_point_group_measured_fraction_full 0.786
_diffrn_reflns_point_group_measured_fraction_max 0.608
_diffrn_reflns_theta_full        14.392
_diffrn_reflns_theta_max         20.219
_diffrn_reflns_theta_min         2.144
_diffrn_source                   synchrotron
_exptl_absorpt_coefficient_mu    6.887
_exptl_absorpt_correction_T_max  1.00000
_exptl_absorpt_correction_T_min  0.75014
_exptl_absorpt_correction_type   multi-scan
_exptl_absorpt_process_details
;
CrysAlisPro, Agilent Technologies,
Version 1.171.37.35 (release 13-08-2014 CrysAlis171 .NET)
(compiled Aug 13 2014,18:06:01)
Empirical absorption correction using spherical harmonics,
 implemented in SCALE3 ABSPACK scaling algorithm.
;
_exptl_crystal_density_diffrn    5.961
_exptl_crystal_description       block
_exptl_crystal_F_000             1440
_exptl_crystal_size_max          0.065
_exptl_crystal_size_mid          0.04
_exptl_crystal_size_min          0.02
_refine_diff_density_max         0.365
_refine_diff_density_min         -0.285
_refine_diff_density_rms         0.094
_refine_ls_extinction_method     none
_refine_ls_goodness_of_fit_ref   1.275
_refine_ls_hydrogen_treatment    undef
_refine_ls_matrix_type           full
_refine_ls_number_parameters     8
_refine_ls_number_reflns         79
_refine_ls_number_restraints     0
_refine_ls_restrained_S_all      1.275
_refine_ls_R_factor_all          0.0367
_refine_ls_R_factor_gt           0.0341
_refine_ls_shift/su_max          0.000
_refine_ls_shift/su_mean         0.000
_refine_ls_structure_factor_coef Fsqd
_refine_ls_weighting_details
'w=1/[\s^2^(Fo^2^)+(0.0290P)^2^+7.6720P] where P=(Fo^2^+2Fc^2^)/3'
_refine_ls_weighting_scheme      calc
_refine_ls_wR_factor_gt          0.0854
_refine_ls_wR_factor_ref         0.0883
_reflns_Friedel_coverage         0.000
_reflns_number_gt                71
_reflns_number_total             79
_reflns_threshold_expression     'I > 2\s(I)'
_cod_data_source_file            cg5b00390_si_002.cif
_cod_data_source_block           marseno_022
_cod_original_cell_volume        881.84(12)
_cod_database_code               4513582
_chemical_oxdiff_formula         'As4 O6'
_shelx_space_group_comment
;
The symmetry employed for this shelxl refinement is uniquely defined
by the following loop, which should always be used as a source of
symmetry information in preference to the above space-group names.
They are only intended as comments.
;
_olex2_refinement_description
;
;
_shelx_res_file
;
    marseno_022.res created by SHELXL-2014/7

TITL marseno_022_a.res in Fd-3m
REM Old TITL marseno_022 in Fd-3m #227
CELL 0.41427 9.589516 9.589516 9.589516 90 90 90
ZERR 8 0.000433 0.000433 0.000433 0 0 0
LATT 4
SYMM 0.75-X,0.25-Y,0.5+Z
SYMM 0.25-X,0.5+Y,0.75-Z
SYMM 0.5+X,0.75-Y,0.25-Z
SYMM +Z,+X,+Y
SYMM 0.5+Z,0.75-X,0.25-Y
SYMM 0.75-Z,0.25-X,0.5+Y
SYMM 0.25-Z,0.5+X,0.75-Y
SYMM +Y,+Z,+X
SYMM 0.25-Y,0.5+Z,0.75-X
SYMM 0.5+Y,0.75-Z,0.25-X
SYMM 0.75-Y,0.25-Z,0.5+X
SYMM 0.75+Y,0.25+X,0.5-Z
SYMM -Y,-X,-Z
SYMM 0.25+Y,0.5-X,0.75+Z
SYMM 0.5-Y,0.75+X,0.25+Z
SYMM 0.75+X,0.25+Z,0.5-Y
SYMM 0.5-X,0.75+Z,0.25+Y
SYMM -X,-Z,-Y
SYMM 0.25+X,0.5-Z,0.75+Y
SYMM 0.75+Z,0.25+Y,0.5-X
SYMM 0.25+Z,0.5-Y,0.75+X
SYMM 0.5-Z,0.75+Y,0.25+X
SYMM -Z,-Y,-X
SFAC As O
DISP As 0.311 0.799 1882.762
DISP O 0.002 0.002 10.067
UNIT 32.00064 48

L.S. 10 0 0
PLAN  20
BOND $H
LIST 6
fmap 2 53
acta
OMIT 1 11 11
REM <olex2.extras>
REM <HklSrc "%.\\marseno_022.hkl">
REM </olex2.extras>

WGHT    0.029000    7.672000
FVAR       1.78240
AS1   1    0.253941    0.253941    0.253941    10.16667    0.01055    0.01055 =
         0.01055   -0.00049   -0.00049   -0.00049
O1    2    0.375000    0.375000    0.180060    10.25000    0.01412    0.01412 =
         0.01127    0.00000    0.00000   -0.00076
HKLF 4

REM  marseno_022_a.res in Fd-3m
REM R1 =  0.0341 for      71 Fo > 4sig(Fo)  and  0.0367 for all      79 data
REM      8 parameters refined using      0 restraints

END

WGHT      0.0286      7.6745

REM Highest difference peak  0.365,  deepest hole -0.285,  1-sigma level  0.094
Q1    1   0.3750  0.3750  0.2437  10.25000  0.05    0.36
Q2    1   0.2040  0.1690  0.1690  10.50000  0.05    0.36
Q3    1   0.3494  0.2945  0.2274  11.00000  0.05    0.29
Q4    1   0.2038  0.2038  0.0462  10.16667  0.05    0.28
Q5    1   0.3592  0.4200  0.1193  11.00000  0.05    0.26
Q6    1   0.4567  0.3579  0.2088  11.00000  0.05    0.25
Q7    1   0.2331  0.2331  0.3058  10.50000  0.05    0.25
Q8    1   0.1250  0.1250  0.2104  10.25000  0.05    0.25
Q9    1   0.4719  0.2781  0.2781  10.16667  0.05    0.24
Q10   1   0.3972  0.3528  0.2640  10.50000  0.05    0.24
Q11   1   0.3778  0.2822  0.1951  11.00000  0.05    0.23
Q12   1   0.2500  0.2803  0.0303  10.50000  0.05    0.22
Q13   1   0.2818  0.2146  0.2146  10.50000  0.05    0.21
Q14   1   0.3819  0.4625  0.0724  11.00000  0.05    0.21
Q15   1   0.2979  0.2610  0.2610  10.50000  0.05    0.20
Q16   1   0.2805  0.2805  0.0973  10.50000  0.05    0.19
Q17   1   0.2477  0.2229  0.0987  11.00000  0.05    0.17
Q18   1   0.3601  0.3601  0.0395  10.50000  0.05    0.16
Q19   1   0.3268  0.4232  0.3268  10.16667  0.05    0.16
Q20   1   0.1687  0.2546  0.1687  10.50000  0.05    0.16
;
_shelx_res_checksum              42832
_shelx_hkl_file
;
   1   1  -1 48084.7 799.742   1
   1  -1   1 46794.4 336.642   1
  -2   0   0 1.39627 9.88468   1
   2   0   0 6.20014 15.9282   1
   2   2   0 9268.51 465.926   1
   0  -2   2 8733.99 360.062   1
  -2  -2   0 9079.17 428.641   1
   0   2  -2 8593.48 345.007   1
   3   1  -1 17.3898 26.9016   1
  -3  -1   1 20.4818 26.1136   1
   1   3  -1 83.6646 33.7125   1
  -1  -3   1 13.8357 14.8485   1
   3  -1   1 11.2240 15.6064   1
  -1   3  -1 20.9050 9.12815   1
   3   3  -1 52853.6 1368.24   1
  -3  -1   3 54397.3 1329.73   1
   1   3  -3 52665.9 1186.13   1
  -1  -3   3 52694.0 1219.85   1
  -3  -3   1 51267.1 1315.50   1
  -1   3  -3 53306.0 939.470   1
   1  -3   3 49628.1 907.984   1
   3   1  -3 51798.7 1294.63   1
  -3  -3   3 6330.72 483.592   1
   3   3  -3 5531.09 457.046   1
   3  -3   3 5200.22 182.466   1
   0  -4   2 28.2216 27.0880   1
  -4   2   0 1.02922 11.2179   1
   4   2   0 16.5018 46.3209   1
   4   0  -2 11.8567 24.6755   1
  -2   4  -2 31681.7 662.573   1
   2   4  -2 31768.1 1082.09   1
  -4  -2   2 34200.3 1135.26   1
   4   2  -2 31341.3 1073.93   1
   4  -2   2 29629.6 433.575   1
  -2  -4   2 32469.5 1060.86   1
   4   4  -2 139.524 114.856   1
  -2  -4   4 109.007 70.4011   1
   2  -4   4 55.6797 37.1892   1
  -4   4  -2 58.6967 10.8336   1
   2   4  -4 109.859 63.7817   1
  -4  -4   2 31.2518 49.6543   1
   4   2  -4 7.42489 62.1610   1
  -4  -2   4 8.34410 25.7233   1
  -5   1  -1 1111.04 142.284   1
  -5  -1  -1 1634.20 214.561   1
   5   1  -1 1298.01 211.881   1
   5  -1   1 1308.20 155.098   1
  -5   1   1 1204.00 174.228   1
  -5  -1   1 1179.52 194.817   1
   5   1   1 1356.91 198.316   1
  -1   5  -3 5288.33 363.041   1
   5   1  -3 5312.91 466.567   1
   3   5  -1 6464.15 578.124   1
   5   3  -1 6321.51 561.483   1
  -5  -3   1 5773.65 509.255   1
  -3  -5   1 5927.48 504.644   1
  -1  -5   3 5517.96 442.625   1
   1  -5   3 5813.70 382.194   1
   1   5  -3 5588.85 464.684   1
  -5   3  -1 5869.12 267.041   1
  -5  -1   3 5638.13 513.313   1
  -3  -5   3 642.231 176.535   1
  -5  -3   3 354.736 139.472   1
  -3   5  -3 976.479 110.380   1
   3   5  -3 563.279 150.059   1
   5   3  -3 921.894 216.300   1
   3   3  -5 1201.25 246.601   1
  -3  -3   5 1270.47 246.662   1
   1   5  -5 76727.8 1763.21   1
  -1  -5   5 81427.4 1941.10   1
  -1   5  -5 79162.2 1577.58   1
  -5  -5   1 76079.7 2052.89   1
   5   5  -1 76306.9 2230.23   1
   1  -5   5 78553.3 1632.28   1
   3   5  -5 1048.28 223.669   1
   5   5  -3 651.651 203.760   1
  -3  -5   5 1065.28 252.890   1
   5   3  -5 1038.28 239.353   1
  -5  -5   3 413.747 160.648   1
  -5  -3   5 878.554 233.139   1
   3  -5   5 1196.18 161.710   1
  -5  -5   5 1526.55 337.892   1
   5   5  -5 1569.51 317.868   1
  -6   0   0 57.0676 51.6674   1
   6   0   2 3798.24 339.292   1
  -6  -2   0 3391.60 383.737   1
   0   6  -2 3575.05 379.809   1
   6   2   0 3237.58 384.190   1
   6   0  -2 3351.33 357.697   1
  -6   0   2 3926.56 411.288   1
  -6   2   0 3323.90 283.204   1
   0  -4   6 111.402 58.4730   1
   6   4   0 70.3381 61.0801   1
  -2  -4   6 158.914 118.048   1
   2  -6   4 28.6996 30.1294   1
   2   6  -4 51.5178 53.0264   1
  -2  -6   4 106.504 76.1199   1
  -2   6  -4 6.03957 31.1894   1
   4   4  -6 87.6109 96.7986   1
  -6  -4   4 150.631 90.6965   1
  -4  -4   6 48.8404 114.482   1
   4   6  -4 2.25605 52.1624   1
  -4  -6   4 59.5894 74.1429   1
   0  -6   6 18774.6 969.180   1
   0   6  -6 19085.8 925.766   1
   6   6  -4 2555.65 459.628   1
  -4  -6   6 2118.53 381.170   1
   4  -6   6 2085.72 222.474   1
   6   4  -6 1543.27 368.701   1
  -6  -6   4 2205.95 405.100   1
  -6  -4   6 1945.23 429.650   1
   4   6  -6 2030.43 362.826   1
   7  -1  -1 3879.08 400.079   1
   7   1  -1 3840.70 421.735   1
   7  -1   1 3986.97 341.260   1
  -7  -1  -1 4150.96 411.127   1
  -7   1   1 3953.32 406.879   1
   7   1   1 3835.48 412.291   1
  -7   1  -1 4109.44 348.814   1
  -7  -1   1 3991.21 438.456   1
   7   1  -3 2924.28 385.914   1
  -7  -1   3 3015.98 429.150   1
   1   7  -3 2805.05 387.607   1
   7  -1   3 3060.88 313.228   1
  -7   3  -1 2843.11 247.397   1
  -1   7  -3 2480.11 319.912   1
  -7  -3   1 2355.55 396.955   1
   7   3  -1 2938.11 420.483   1
  -1  -7   3 3158.48 390.131   1
   7   3   1 2772.81 433.520   1
   7   3  -3 66743.3 2038.69   1
   3   7  -3 65749.3 2142.42   1
  -7  -3   3 70774.3 2196.46   1
  -3   7  -3 67824.4 1352.92   1
  -3  -7   3 69528.3 2009.07   1
  -7   5  -1 1350.55 154.582   1
   1  -5   7 1667.15 278.773   1
   1   7  -5 1406.02 259.567   1
   1  -7   5 1322.28 230.999   1
  -1  -7   5 746.586 194.139   1
   7   5  -1 1275.57 285.580   1
  -7  -5   1 627.520 215.637   1
  -1   7  -5 1330.71 226.288   1
  -1  -5   7 1841.08 352.121   1
  -5   7  -3 4280.31 245.988   1
  -5  -7   3 6014.66 664.372   1
  -3   7  -5 5215.72 365.494   1
   3   7  -5 5029.97 572.733   1
  -3  -7   5 5267.78 596.328   1
   3  -7   5 5350.73 392.106   1
  -7  -5   3 4901.08 627.177   1
   7   3  -5 4373.86 576.591   1
   5   7  -3 5969.08 704.327   1
  -7  -3   5 5454.26 666.113   1
   7  -3   5 3833.97 259.122   1
  -3  -5   7 5890.67 651.989   1
   7   5  -3 6000.49 699.971   1
   5   7  -5 4641.95 613.584   1
   7   5  -5 5499.07 658.654   1
   5   5  -7 4629.51 626.846   1
  -5  -7   5 4888.95 645.598   1
  -7  -5   5 5489.15 714.755   1
  -5  -5   7 5030.15 685.569   1
  -7  -7   1 23068.3 1392.92   1
   1   7  -7 23363.3 1205.14   1
   7   7  -1 23528.0 1565.63   1
   1  -7   7 27195.9 1190.63   1
  -1  -7   7 28036.0 1365.29   1
  -7  -7   3 6434.84 777.718   1
   3   7  -7 6867.21 717.858   1
  -3  -7   7 7654.79 791.834   1
   3  -7   7 7047.76 533.950   1
   7   7  -3 5931.05 775.337   1
   5   7  -7 3627.94 552.397   1
   5  -7   7 3774.44 288.701   1
   7   7  -5 3585.72 601.161   1
  -7  -5   7 4755.28 771.507   1
  -7  -7   5 2886.83 561.007   1
   7   5  -7 3256.91 581.031   1
  -5  -7   7 3821.17 633.621   1
  -8   0   2 9.93581 47.2044   1
   8   2   0 54.0815 88.6807   1
   8   2  -2 22797.6 1163.57   1
   8  -2   2 22524.0 761.573   1
  -8   2  -2 23327.0 787.003   1
   8   2   2 22505.0 1182.51   1
  -8  -2   2 23520.9 1237.91   1
   8  -2   4 95.6753 57.8154   1
   2   8  -4 44.1090 64.5108   1
  -2   8  -4 20.4039 20.8491   1
  -8  -2   4 94.7307 114.636   1
  -8   4  -2 89.0228 44.7965   1
   8   2  -4 2.26815 57.9769   1
   4   8  -2 2.86847 89.8006   1
  -2  -8   4 235.871 118.837   1
   0   8  -6 44.6484 44.8816   1
   0  -8   6 70.0566 25.9773   1
   0  -6   8 115.752 97.1116   1
   6   8  -2 3356.80 592.222   1
   2   8  -6 3613.87 487.805   1
  -2   8  -6 3633.76 373.097   1
   2  -8   6 3517.36 386.318   1
  -6  -8   2 3767.41 540.890   1
   8   6  -2 3794.33 602.249   1
  -8   6  -2 2178.30 140.456   1
  -8  -6   2 3817.76 576.983   1
  -2  -6   8 3235.00 497.196   1
  -2  -8   6 3497.48 477.294   1
  -8  -4   6 3.65757 145.112   1
   8   6  -4 92.5880 134.854   1
   4  -6   8 62.5103 51.8215   1
  -4  -6   8 103.729 103.154   1
   4   8  -6 71.7098 73.6348   1
  -8  -6   4 261.583 182.763   1
   6   8  -4 67.6385 24.8234   1
  -4  -8   6 218.627 166.547   1
   8   6  -6 42.4741 111.195   1
   6   8  -6 164.827 147.796   1
   2   8  -8 64.8947 74.5022   1
   8   8  -2 397.498 256.620   1
   2  -8   8 239.768 114.599   1
  -2  -8   8 236.722 122.863   1
   9   1  -1 20669.0 1082.48   1
   9  -1   1 20773.8 901.227   1
  -9  -1  -1 19861.1 1023.91   1
   9  -1  -1 20467.0 991.974   1
  -9   1  -1 19520.4 913.840   1
  -9  -1   1 21761.5 1187.88   1
  -9   1   1 20291.3 1047.20   1
   9   1   1 19862.0 1049.91   1
  -9  -3  -1 7735.64 712.632   1
  -9  -3   1 7707.45 766.552   1
  -9   3  -1 7587.25 511.622   1
   9   1   3 6834.95 660.212   1
  -1   9  -3 7064.20 658.722   1
   1   9  -3 6809.65 707.611   1
   9   3   1 7060.17 724.612   1
  -9  -1   3 7597.21 804.210   1
   9   1  -3 7382.69 688.178   1
   9  -1   3 7276.34 557.060   1
  -9   3   1 8372.98 645.162   1
   9   3  -1 8080.43 763.973   1
  -9   1   3 8516.09 785.226   1
   3   9  -3 1241.28 337.824   1
   9   3  -3 647.100 218.285   1
  -3   9  -3 944.096 201.471   1
  -9  -3   3 414.142 199.524   1
   1  -9   5 8949.24 677.001   1
  -9  -5   1 8972.80 876.116   1
  -1  -9   5 8232.85 734.879   1
  -9   5  -1 7375.12 451.609   1
   9   5  -1 8653.65 939.907   1
   1   9  -5 9215.49 803.551   1
  -1   9  -5 8290.97 671.268   1
   9   5  -3 9330.83 973.549   1
  -3   9  -5 10103.3 610.120   1
  -5  -9   3 9128.25 895.505   1
   9   3  -5 9484.77 909.840   1
  -3  -9   5 10372.4 897.446   1
  -9  -5   3 7212.77 890.039   1
  -5   9  -3 8391.84 489.600   1
   5   9  -3 8678.44 994.895   1
  -9  -3   5 10250.2 1066.26   1
   9  -3   5 7271.64 398.128   1
   3   9  -5 11018.3 986.649   1
   9   5  -5 42545.9 2029.01   1
  -5  -9   5 42919.3 2051.89   1
   5   9  -5 44683.8 2186.87   1
   9   7  -1 57.6024 155.348   1
   1   9  -7 118.821 84.0792   1
  -1  -7   9 230.865 160.671   1
  -1  -9   7 242.900 147.869   1
  -1   9  -7 200.549 103.701   1
   3   9  -7 662.350 217.046   1
   3  -7   9 92.5908 61.2746   1
   7   9  -3 578.394 173.441   1
  -3  -7   9 916.590 329.223   1
  -7   9  -3 408.165 75.0819   1
   3  -9   7 929.163 200.970   1
  -3  -9   7 516.225 230.662   1
   9   7  -3 529.624 248.254   1
   5  -7   9 1076.22 189.189   1
   5   9  -7 672.439 279.688   1
   1  -9   9 20397.6 1219.75   1
  -1  -9   9 20682.2 1390.00   1
   3   9  -9 12036.5 1099.85   1
   3  -9   9 13616.3 861.319   1
 -10   0   0 104.308 107.488   1
  10   0   0 58.0034 73.5763   1
  10   0  -2 3754.24 482.231   1
 -10  -2   0 3721.08 503.517   1
 -10   2   0 3661.42 430.561   1
 -10   0   2 4211.16 544.301   1
  10   0   2 3123.09 393.573   1
  10   2   0 3690.56 522.032   1
   0  10  -4 59.2890 92.2979   1
 -10   4   0 4.39202 59.7049   1
 -10  -4   0 81.9597 29.7770   1
  10   0   4 28.6391 72.3425   1
  10   2  -4 76.0399 129.868   1
  -2  10  -4 119.966 91.0802   1
   2  10  -4 137.123 121.088   1
 -10  -4   2 251.109 184.842   1
  10  -2   4 26.1883 30.3989   1
  10   4  -4 12.0833 85.5418   1
  -4 -10   4 2.90421 74.2355   1
   0  10  -6 6083.08 625.663   1
  10   6   0 5108.67 777.160   1
   0 -10   6 5518.75 599.502   1
  -6  10  -4 3805.42 298.375   1
   4  10  -6 4269.90 656.467   1
  -4  10  -6 5349.59 441.739   1
   0  -8  10 23.1776 41.7733   1
   0 -10   8 81.4425 97.0893   1
   0  10  -8 13.9073 45.5445   1
   2 -10   8 351.312 136.903   1
  -2 -10   8 76.8776 107.610   1
   2  10  -8 285.073 136.716   1
   4  -8  10 33.4164 55.3864   1
   0 -10  10 10699.4 974.747   1
   2 -10  10 162549. 3410.96   1
  11   1  -1 11733.7 878.422   1
  11  -1   1 12651.9 794.338   1
 -11  -1  -1 13063.9 950.621   1
 -11   1  -1 13195.6 848.626   1
 -11  -1   1 13089.0 1045.36   1
 -11   1   1 13366.6 985.920   1
  11   1   1 13537.0 989.213   1
  11  -1   3 9359.75 699.997   1
  11   3  -1 8666.44 874.421   1
  11   1  -3 9101.33 865.904   1
 -11  -3   1 8721.96 898.660   1
 -11   3  -1 9830.84 678.053   1
 -11  -1   3 10467.7 1012.33   1
 -11   3   1 9679.76 787.655   1
  11   1   3 9692.12 832.481   1
 -11   1   3 10623.9 1004.93   1
  11   3   1 8645.75 895.602   1
  11   3  -3 9252.20 896.869   1
 -11  -3   3 7908.93 957.783   1
  11  -1   5 179.020 98.9557   1
   1  11  -5 70.3931 78.2437   1
  -1  11  -5 155.520 108.526   1
  11   5  -1 35.1747 161.522   1
 -11   5  -1 89.1449 56.8549   1
  -3 -11   5 4655.45 648.568   1
   3  11  -5 5517.13 784.736   1
  -3  11  -5 5474.64 542.042   1
  -5  11  -5 3556.45 351.979   1
   1  11  -7 14358.0 1083.27   1
  -1  11  -7 14727.4 967.587   1
   1 -11   7 14974.2 1000.99   1
  -1 -11   7 14439.3 1093.10   1
   3  11  -7 22432.6 1506.63   1
  -3  11  -7 22930.7 1081.09   1
   1 -11   9 546.161 170.119   1
   1  11  -9 257.509 91.6091   1
  -1 -11   9 283.345 171.926   1
   1 -11  11 61.5544 91.8675   1
  12   0   0 251232. 3997.32   1
 -12   0   0 248712. 4402.97   1
  12   0  -2 175.781 114.497   1
 -12  -2   0 26.4298 93.3177   1
 -12   0   2 156.019 139.897   1
  12   2  -2 4855.79 640.599   1
  12  -2   2 5938.72 522.453   1
 -12   2   2 4591.82 628.240   1
 -12  -2   2 4843.95 734.285   1
  12   2   2 5395.19 672.552   1
 -12   4   0 285037. 4048.59   1
 -12   0   4 276844. 5779.23   1
  12   0   4 278581. 4299.77   1
  12   4   0 281855. 5390.04   1
  12   2  -4 342.499 175.204   1
  12  -2   4 96.8988 81.3413   1
   2  12  -6 133.346 131.752   1
  -2  12  -6 212.695 124.759   1
   0  12  -8 178757. 3792.54   1
   0 -12   8 176726. 3832.09   1
  -2  12  -8 397.847 150.186   1
  13   1   1 9618.40 874.915   1
  13   1  -1 10449.2 907.091   1
  13  -1   1 11286.7 834.482   1
 -13  -1  -1 9496.42 896.412   1
 -13   1  -1 10989.1 862.052   1
 -13  -1   1 8599.69 939.730   1
 -13   1   1 9932.16 933.949   1
 -13   1   3 804.153 292.156   1
 -13   3  -1 456.322 183.807   1
  13   3  -1 1208.90 337.153   1
  13   1  -3 170.617 162.153   1
  13   1   3 638.292 209.791   1
  13  -1   3 922.410 230.705   1
  13   3   1 536.759 289.885   1
 -13   3   1 849.318 254.347   1
  13  -1   5 11432.9 862.519   1
   1  13  -7 3648.50 617.169   1
  -1  13  -7 2584.65 433.817   1
  -1  13  -9 11928.4 1031.12   1
 -14   0   0 179.325 173.291   1
 -14   2   0 2.59936 130.602   1
 -14   2   2 162092. 4165.28   1
  14   2   2 186821. 4353.20   1
  14   0   4 63.7999 87.6906   1
 -14   4   0 333.941 116.265   1
  15   1   1 246.919 137.622   1
 -15   1  -1 577.191 184.723   1
 -15   1   1 268.315 196.616   1
  15   1   3 7206.70 828.373   1
  16   0   0 136013. 3494.66   1
   0   0   0    0.00    0.00   0
TITL marseno_022 in Fd-3m
REM Fd-3m (#227 in standard setting)
CELL 0.41427   9.589516   9.589516   9.589516  90.0000  90.0000  90.0000
ZERR    8.00   0.000433   0.000433   0.000433   0.0000   0.0000   0.0000
LATT  4
SYMM -x+3/4,-y+1/4, z+1/2
SYMM -x+1/4, y+1/2,-z+3/4
SYMM  x+1/2,-y+3/4,-z+1/4
SYMM  z, x, y
SYMM  z+1/2,-x+3/4,-y+1/4
SYMM -z+3/4,-x+1/4, y+1/2
SYMM -z+1/4, x+1/2,-y+3/4
SYMM  y, z, x
SYMM -y+1/4, z+1/2,-x+3/4
SYMM  y+1/2,-z+3/4,-x+1/4
SYMM -y+3/4,-z+1/4, x+1/2
SYMM  y+3/4, x+1/4,-z+1/2
SYMM -y,-x,-z
SYMM  y+1/4,-x+1/2, z+3/4
SYMM -y+1/2, x+3/4, z+1/4
SYMM  x+3/4, z+1/4,-y+1/2
SYMM -x+1/2, z+3/4, y+1/4
SYMM -x,-z,-y
SYMM  x+1/4,-z+1/2, y+3/4
SYMM  z+3/4, y+1/4,-x+1/2
SYMM  z+1/4,-y+1/2, x+3/4
SYMM -z+1/2, y+3/4, x+1/4
SYMM -z,-y,-x
SFAC O As
UNIT 48.00 32.00
TREF
HKLF 4
END
;
_shelx_hkl_checksum              76765
_shelx_shelxl_version_number     2014/7
loop_
_space_group_symop_operation_xyz
'x, y, z'
'-x+3/4, -y+1/4, z+1/2'
'-x+1/4, y+1/2, -z+3/4'
'x+1/2, -y+3/4, -z+1/4'
'z, x, y'
'z+1/2, -x+3/4, -y+1/4'
'-z+3/4, -x+1/4, y+1/2'
'-z+1/4, x+1/2, -y+3/4'
'y, z, x'
'-y+1/4, z+1/2, -x+3/4'
'y+1/2, -z+3/4, -x+1/4'
'-y+3/4, -z+1/4, x+1/2'
'y+3/4, x+1/4, -z+1/2'
'-y, -x, -z'
'y+1/4, -x+1/2, z+3/4'
'-y+1/2, x+3/4, z+1/4'
'x+3/4, z+1/4, -y+1/2'
'-x+1/2, z+3/4, y+1/4'
'-x, -z, -y'
'x+1/4, -z+1/2, y+3/4'
'z+3/4, y+1/4, -x+1/2'
'z+1/4, -y+1/2, x+3/4'
'-z+1/2, y+3/4, x+1/4'
'-z, -y, -x'
'x, y+1/2, z+1/2'
'-x+3/4, -y+3/4, z+1'
'-x+1/4, y+1, -z+5/4'
'x+1/2, -y+5/4, -z+3/4'
'z, x+1/2, y+1/2'
'z+1/2, -x+5/4, -y+3/4'
'-z+3/4, -x+3/4, y+1'
'-z+1/4, x+1, -y+5/4'
'y, z+1/2, x+1/2'
'-y+1/4, z+1, -x+5/4'
'y+1/2, -z+5/4, -x+3/4'
'-y+3/4, -z+3/4, x+1'
'y+3/4, x+3/4, -z+1'
'-y, -x+1/2, -z+1/2'
'y+1/4, -x+1, z+5/4'
'-y+1/2, x+5/4, z+3/4'
'x+3/4, z+3/4, -y+1'
'-x+1/2, z+5/4, y+3/4'
'-x, -z+1/2, -y+1/2'
'x+1/4, -z+1, y+5/4'
'z+3/4, y+3/4, -x+1'
'z+1/4, -y+1, x+5/4'
'-z+1/2, y+5/4, x+3/4'
'-z, -y+1/2, -x+1/2'
'x+1/2, y, z+1/2'
'-x+5/4, -y+1/4, z+1'
'-x+3/4, y+1/2, -z+5/4'
'x+1, -y+3/4, -z+3/4'
'z+1/2, x, y+1/2'
'z+1, -x+3/4, -y+3/4'
'-z+5/4, -x+1/4, y+1'
'-z+3/4, x+1/2, -y+5/4'
'y+1/2, z, x+1/2'
'-y+3/4, z+1/2, -x+5/4'
'y+1, -z+3/4, -x+3/4'
'-y+5/4, -z+1/4, x+1'
'y+5/4, x+1/4, -z+1'
'-y+1/2, -x, -z+1/2'
'y+3/4, -x+1/2, z+5/4'
'-y+1, x+3/4, z+3/4'
'x+5/4, z+1/4, -y+1'
'-x+1, z+3/4, y+3/4'
'-x+1/2, -z, -y+1/2'
'x+3/4, -z+1/2, y+5/4'
'z+5/4, y+1/4, -x+1'
'z+3/4, -y+1/2, x+5/4'
'-z+1, y+3/4, x+3/4'
'-z+1/2, -y, -x+1/2'
'x+1/2, y+1/2, z'
'-x+5/4, -y+3/4, z+1/2'
'-x+3/4, y+1, -z+3/4'
'x+1, -y+5/4, -z+1/4'
'z+1/2, x+1/2, y'
'z+1, -x+5/4, -y+1/4'
'-z+5/4, -x+3/4, y+1/2'
'-z+3/4, x+1, -y+3/4'
'y+1/2, z+1/2, x'
'-y+3/4, z+1, -x+3/4'
'y+1, -z+5/4, -x+1/4'
'-y+5/4, -z+3/4, x+1/2'
'y+5/4, x+3/4, -z+1/2'
'-y+1/2, -x+1/2, -z'
'y+3/4, -x+1, z+3/4'
'-y+1, x+5/4, z+1/4'
'x+5/4, z+3/4, -y+1/2'
'-x+1, z+5/4, y+1/4'
'-x+1/2, -z+1/2, -y'
'x+3/4, -z+1, y+3/4'
'z+5/4, y+3/4, -x+1/2'
'z+3/4, -y+1, x+3/4'
'-z+1, y+5/4, x+1/4'
'-z+1/2, -y+1/2, -x'
'-x, -y, -z'
'x-3/4, y-1/4, -z-1/2'
'x-1/4, -y-1/2, z-3/4'
'-x-1/2, y-3/4, z-1/4'
'-z, -x, -y'
'-z-1/2, x-3/4, y-1/4'
'z-3/4, x-1/4, -y-1/2'
'z-1/4, -x-1/2, y-3/4'
'-y, -z, -x'
'y-1/4, -z-1/2, x-3/4'
'-y-1/2, z-3/4, x-1/4'
'y-3/4, z-1/4, -x-1/2'
'-y-3/4, -x-1/4, z-1/2'
'y, x, z'
'-y-1/4, x-1/2, -z-3/4'
'y-1/2, -x-3/4, -z-1/4'
'-x-3/4, -z-1/4, y-1/2'
'x-1/2, -z-3/4, -y-1/4'
'x, z, y'
'-x-1/4, z-1/2, -y-3/4'
'-z-3/4, -y-1/4, x-1/2'
'-z-1/4, y-1/2, -x-3/4'
'z-1/2, -y-3/4, -x-1/4'
'z, y, x'
'-x, -y+1/2, -z+1/2'
'x-3/4, y+1/4, -z'
'x-1/4, -y, z-1/4'
'-x-1/2, y-1/4, z+1/4'
'-z, -x+1/2, -y+1/2'
'-z-1/2, x-1/4, y+1/4'
'z-3/4, x+1/4, -y'
'z-1/4, -x, y-1/4'
'-y, -z+1/2, -x+1/2'
'y-1/4, -z, x-1/4'
'-y-1/2, z-1/4, x+1/4'
'y-3/4, z+1/4, -x'
'-y-3/4, -x+1/4, z'
'y, x+1/2, z+1/2'
'-y-1/4, x, -z-1/4'
'y-1/2, -x-1/4, -z+1/4'
'-x-3/4, -z+1/4, y'
'x-1/2, -z-1/4, -y+1/4'
'x, z+1/2, y+1/2'
'-x-1/4, z, -y-1/4'
'-z-3/4, -y+1/4, x'
'-z-1/4, y, -x-1/4'
'z-1/2, -y-1/4, -x+1/4'
'z, y+1/2, x+1/2'
'-x+1/2, -y, -z+1/2'
'x-1/4, y-1/4, -z'
'x+1/4, -y-1/2, z-1/4'
'-x, y-3/4, z+1/4'
'-z+1/2, -x, -y+1/2'
'-z, x-3/4, y+1/4'
'z-1/4, x-1/4, -y'
'z+1/4, -x-1/2, y-1/4'
'-y+1/2, -z, -x+1/2'
'y+1/4, -z-1/2, x-1/4'
'-y, z-3/4, x+1/4'
'y-1/4, z-1/4, -x'
'-y-1/4, -x-1/4, z'
'y+1/2, x, z+1/2'
'-y+1/4, x-1/2, -z-1/4'
'y, -x-3/4, -z+1/4'
'-x-1/4, -z-1/4, y'
'x, -z-3/4, -y+1/4'
'x+1/2, z, y+1/2'
'-x+1/4, z-1/2, -y-1/4'
'-z-1/4, -y-1/4, x'
'-z+1/4, y-1/2, -x-1/4'
'z, -y-3/4, -x+1/4'
'z+1/2, y, x+1/2'
'-x+1/2, -y+1/2, -z'
'x-1/4, y+1/4, -z-1/2'
'x+1/4, -y, z-3/4'
'-x, y-1/4, z-1/4'
'-z+1/2, -x+1/2, -y'
'-z, x-1/4, y-1/4'
'z-1/4, x+1/4, -y-1/2'
'z+1/4, -x, y-3/4'
'-y+1/2, -z+1/2, -x'
'y+1/4, -z, x-3/4'
'-y, z-1/4, x-1/4'
'y-1/4, z+1/4, -x-1/2'
'-y-1/4, -x+1/4, z-1/2'
'y+1/2, x+1/2, z'
'-y+1/4, x, -z-3/4'
'y, -x-1/4, -z-1/4'
'-x-1/4, -z+1/4, y-1/2'
'x, -z-1/4, -y-1/4'
'x+1/2, z+1/2, y'
'-x+1/4, z, -y-3/4'
'-z-1/4, -y+1/4, x-1/2'
'-z+1/4, y, -x-3/4'
'z, -y-1/4, -x-1/4'
'z+1/2, y+1/2, x'
loop_
_atom_site_label
_atom_site_type_symbol
_atom_site_fract_x
_atom_site_fract_y
_atom_site_fract_z
_atom_site_U_iso_or_equiv
_atom_site_adp_type
_atom_site_occupancy
_atom_site_site_symmetry_order
_atom_site_calc_flag
_atom_site_refinement_flags_posn
_atom_site_refinement_flags_adp
_atom_site_refinement_flags_occupancy
As1 As 0.25394(4) 0.25394(4) 0.25394(4) 0.0105(4) Uani 1 6 d S T P
O1 O 0.3750 0.3750 0.1801(3) 0.0132(8) Uani 1 4 d S T P
loop_
_atom_site_aniso_label
_atom_site_aniso_U_11
_atom_site_aniso_U_22
_atom_site_aniso_U_33
_atom_site_aniso_U_23
_atom_site_aniso_U_13
_atom_site_aniso_U_12
As1 0.0105(4) 0.0105(4) 0.0105(4) -0.00049(9) -0.00049(9) -0.00049(9)
O1 0.0141(10) 0.0141(10) 0.0113(15) 0.000 0.000 -0.0008(13)
loop_
_atom_type_symbol
_atom_type_description
_atom_type_scat_dispersion_real
_atom_type_scat_dispersion_imag
_atom_type_scat_source
As As 0.3110 0.7990 'International Tables Vol C Tables 4.2.6.8 and 6.1.1.4'
O O 0.0020 0.0020 'International Tables Vol C Tables 4.2.6.8 and 6.1.1.4'
loop_
_geom_angle_atom_site_label_1
_geom_angle_atom_site_label_2
_geom_angle_atom_site_label_3
_geom_angle
_geom_angle_site_symmetry_1
_geom_angle_site_symmetry_3
O1 As1 O1 95.33(13) 9 5
O1 As1 O1 95.33(13) 9 .
O1 As1 O1 95.33(13) 5 .
As1 O1 As1 133.32(19) . 26_554
loop_
_geom_bond_atom_site_label_1
_geom_bond_atom_site_label_2
_geom_bond_distance
_geom_bond_site_symmetry_2
As1 O1 1.7881(13) 9
As1 O1 1.7881(13) 5
As1 O1 1.7881(14) .
O1 As1 1.7881(13) 26_554
