#------------------------------------------------------------------------------
#$Date: 2015-09-04 08:12:49 +0300 (Fri, 04 Sep 2015) $
#$Revision: 153928 $
#$URL: svn://www.crystallography.net/cod/cif/4/51/35/4513576.cif $
#------------------------------------------------------------------------------
#
# This file is available in the Crystallography Open Database (COD),
# http://www.crystallography.net/
#
# All data on this site have been placed in the public domain by the
# contributors.
#
data_4513576
loop_
_publ_author_name
'Gu\'nka, Piotr A.'
'Dziubek, Kamil F.'
'G\/ladysiak, Andrzej'
'Dranka, Maciej'
'Piechota, Jacek'
'Hanfland, Michael'
'Katrusiak, Andrzej'
'Zachara, Janusz'
_publ_section_title
;
 Compressed Arsenolite As4O6and Its Helium Clathrate As4O6&#x00B7;2He
;
_journal_issue                   8
_journal_name_full               'Crystal Growth &amp; Design'
_journal_page_first              3740
_journal_paper_doi               10.1021/acs.cgd.5b00390
_journal_volume                  15
_journal_year                    2015
_chemical_formula_moiety         'As4 O6'
_chemical_formula_sum            'As4 O6'
_chemical_formula_weight         395.68
_chemical_name_common            arsenolite
_space_group_crystal_system      cubic
_space_group_IT_number           227
_space_group_name_Hall           '-F 4vw 2vw 3'
_space_group_name_H-M_alt        'F d -3 m'
_symmetry_space_group_name_Hall  '-F 4vw 2vw 3'
_symmetry_space_group_name_H-M   'F d -3 m :2'
_atom_sites_solution_primary     direct
_audit_creation_date             2014-10-15
_audit_creation_method
;
Olex2 1.2-beta
(compiled 2014.09.19 svn.r3010 for OlexSys, GUI svn.r4874)
;
_cell_angle_alpha                90
_cell_angle_beta                 90
_cell_angle_gamma                90
_cell_formula_units_Z            8
_cell_length_a                   10.0124(4)
_cell_length_b                   10.0124(4)
_cell_length_c                   10.0124(4)
_cell_measurement_pressure       1.108e7(5)
_cell_measurement_reflns_used    359
_cell_measurement_temperature    293(2)
_cell_measurement_theta_max      20.6750
_cell_measurement_theta_min      2.0490
_cell_volume                     1003.72(7)
_computing_cell_refinement
;
CrysAlisPro, Agilent Technologies,
Version 1.171.37.34 (release 22-05-2014 CrysAlis171 .NET)
(compiled May 22 2014,16:03:01)
;
_computing_data_collection
;
CrysAlisPro, Agilent Technologies,
Version 1.171.37.34 (release 22-05-2014 CrysAlis171 .NET)
(compiled May 22 2014,16:03:01)
;
_computing_data_reduction
;
CrysAlisPro, Agilent Technologies,
Version 1.171.37.34 (release 22-05-2014 CrysAlis171 .NET)
(compiled May 22 2014,16:03:01)
;
_computing_molecular_graphics    'Olex2 (Dolomanov et al., 2009)'
_computing_publication_material  'Olex2 (Dolomanov et al., 2009)'
_computing_structure_refinement  'ShelXL (Sheldrick, 2008)'
_computing_structure_solution    'ShelXT (Sheldrick, 2008)'
_diffrn_ambient_environment      He
_diffrn_ambient_pressure         1.108e7(5)
_diffrn_ambient_temperature      293(2)
_diffrn_detector                 'CCD plate'
_diffrn_measured_fraction_theta_full 0.857
_diffrn_measured_fraction_theta_max 0.604
_diffrn_measurement_details
;
  1 phi    148.00  212.00   0.5000    1.0000
omega____ theta____ kappa____ phi______ frames
   0.0000    0.0000    0.0000     -     128
;
_diffrn_measurement_device       'abstract diffractometer'
_diffrn_measurement_device_type
'MAR-CrysAlisPro-abstract goniometer: imported MAR images'
_diffrn_measurement_method       '\p scans'
_diffrn_orient_matrix_UB_11      0.0335830000
_diffrn_orient_matrix_UB_12      -0.0241753000
_diffrn_orient_matrix_UB_13      0.0004066000
_diffrn_orient_matrix_UB_21      0.0160843000
_diffrn_orient_matrix_UB_22      0.0228532000
_diffrn_orient_matrix_UB_23      0.0304904000
_diffrn_orient_matrix_UB_31      -0.0180304000
_diffrn_orient_matrix_UB_32      -0.0245924000
_diffrn_orient_matrix_UB_33      0.0279795000
_diffrn_radiation_monochromator  synchrotron
_diffrn_radiation_probe          x-ray
_diffrn_radiation_wavelength     0.41427
_diffrn_reflns_av_R_equivalents  0.0271
_diffrn_reflns_av_unetI/netI     0.0174
_diffrn_reflns_laue_measured_fraction_full 0.857
_diffrn_reflns_laue_measured_fraction_max 0.604
_diffrn_reflns_limit_h_max       9
_diffrn_reflns_limit_h_min       -11
_diffrn_reflns_limit_k_max       14
_diffrn_reflns_limit_k_min       -12
_diffrn_reflns_limit_l_max       17
_diffrn_reflns_limit_l_min       -15
_diffrn_reflns_number            466
_diffrn_reflns_point_group_measured_fraction_full 0.857
_diffrn_reflns_point_group_measured_fraction_max 0.604
_diffrn_reflns_theta_full        14.392
_diffrn_reflns_theta_max         20.665
_diffrn_reflns_theta_min         2.053
_diffrn_source                   synchrotron
_exptl_absorpt_coefficient_mu    6.051
_exptl_absorpt_correction_T_max  1.00000
_exptl_absorpt_correction_T_min  0.58585
_exptl_absorpt_correction_type   multi-scan
_exptl_absorpt_process_details
;
CrysAlisPro, Agilent Technologies,
Version 1.171.37.34 (release 22-05-2014 CrysAlis171 .NET)
(compiled May 22 2014,16:03:01)
Empirical absorption correction using spherical harmonics,
 implemented in SCALE3 ABSPACK scaling algorithm.
;
_exptl_crystal_density_diffrn    5.237
_exptl_crystal_description       block
_exptl_crystal_F_000             1440
_exptl_crystal_size_max          0.065
_exptl_crystal_size_mid          0.04
_exptl_crystal_size_min          0.02
_refine_diff_density_max         0.794
_refine_diff_density_min         -0.651
_refine_diff_density_rms         0.175
_refine_ls_extinction_method     none
_refine_ls_goodness_of_fit_ref   1.256
_refine_ls_hydrogen_treatment    undef
_refine_ls_matrix_type           full
_refine_ls_number_parameters     8
_refine_ls_number_reflns         93
_refine_ls_number_restraints     0
_refine_ls_restrained_S_all      1.256
_refine_ls_R_factor_all          0.0316
_refine_ls_R_factor_gt           0.0297
_refine_ls_shift/su_max          0.000
_refine_ls_shift/su_mean         0.000
_refine_ls_structure_factor_coef Fsqd
_refine_ls_weighting_details
'w=1/[\s^2^(Fo^2^)+(0.0330P)^2^+21.0170P] where P=(Fo^2^+2Fc^2^)/3'
_refine_ls_weighting_scheme      calc
_refine_ls_wR_factor_gt          0.0737
_refine_ls_wR_factor_ref         0.0755
_reflns_Friedel_coverage         0.000
_reflns_number_gt                89
_reflns_number_total             93
_reflns_threshold_expression     'I > 2\s(I)'
_cod_data_source_file            cg5b00390_si_002.cif
_cod_data_source_block           marseno_016
_cod_original_cell_volume        1003.74(11)
_cod_database_code               4513576
_shelx_space_group_comment
;
The symmetry employed for this shelxl refinement is uniquely defined
by the following loop, which should always be used as a source of
symmetry information in preference to the above space-group names.
They are only intended as comments.
;
_olex2_refinement_description
;
;
_shelx_res_file
;
    marseno_016.res created by SHELXL-2014/7

TITL marseno_016_a.res in Fd-3m
CELL 0.41427 10.012441 10.012441 10.012441 90 90 90
ZERR 8 0.000353 0.000353 0.000353 0 0 0
LATT 4
SYMM 0.75-X,0.25-Y,0.5+Z
SYMM 0.25-X,0.5+Y,0.75-Z
SYMM 0.5+X,0.75-Y,0.25-Z
SYMM +Z,+X,+Y
SYMM 0.5+Z,0.75-X,0.25-Y
SYMM 0.75-Z,0.25-X,0.5+Y
SYMM 0.25-Z,0.5+X,0.75-Y
SYMM +Y,+Z,+X
SYMM 0.25-Y,0.5+Z,0.75-X
SYMM 0.5+Y,0.75-Z,0.25-X
SYMM 0.75-Y,0.25-Z,0.5+X
SYMM 0.75+Y,0.25+X,0.5-Z
SYMM -Y,-X,-Z
SYMM 0.25+Y,0.5-X,0.75+Z
SYMM 0.5-Y,0.75+X,0.25+Z
SYMM 0.75+X,0.25+Z,0.5-Y
SYMM 0.5-X,0.75+Z,0.25+Y
SYMM -X,-Z,-Y
SYMM 0.25+X,0.5-Z,0.75+Y
SYMM 0.75+Z,0.25+Y,0.5-X
SYMM 0.25+Z,0.5-Y,0.75+X
SYMM 0.5-Z,0.75+Y,0.25+X
SYMM -Z,-Y,-X

SFAC O As
DISP As 0.311 0.799 1882.762
DISP O 0.002 0.002 10.067
UNIT 48 32

L.S. 10
PLAN  20
REM Old TITL marseno_016 in Fd-3m #227
BOND $H
LIST 6
fmap 2
ACTA
OMIT 2 6 14
REM <HKL>E:/X-Ray_Data_Backup/ESRF_id09_2014_10/data/arsenolite/arseno_016/str
REM uct/olex2_marseno_016/marseno_016.hkl</HKL>

WGHT    0.033000   21.017000
FVAR       1.57686
AS1   2    0.259639    0.259639    0.259639    10.16667    0.00957    0.00957 =
         0.00957   -0.00049   -0.00049   -0.00049
O1    1    0.375000    0.375000    0.185677    10.25000    0.01088    0.01088 =
         0.00864    0.00000    0.00000   -0.00053
HKLF 4

REM  marseno_016_a.res in Fd-3m
REM R1 =  0.0297 for      89 Fo > 4sig(Fo)  and  0.0316 for all      93 data
REM      8 parameters refined using      0 restraints

END

WGHT      0.0327     21.1506

REM Highest difference peak  0.794,  deepest hole -0.651,  1-sigma level  0.175
Q1    1   0.2684  0.3281  0.2684  10.50000  0.05    0.79
Q2    1   0.1623  0.2683  0.2683  10.50000  0.05    0.70
Q3    1   0.3750  0.3750  0.2612  10.25000  0.05    0.58
Q4    1   0.3860  0.4397  0.1920  11.00000  0.05    0.52
Q5    1   0.2647  0.2647  0.1942  10.50000  0.05    0.49
Q6    1   0.3750  0.3750  0.3109  10.25000  0.05    0.42
Q7    1   0.3015  0.4485  0.3015  10.16667  0.05    0.37
Q8    1   0.3750  0.3750 -0.0051  10.25000  0.05    0.36
Q9    1   0.3750  0.3750  0.0398  10.25000  0.05    0.33
Q10   1   0.2634  0.4390  0.2634  10.50000  0.05    0.32
Q11   1   0.1826  0.1826  0.1826  10.16667  0.05    0.31
Q12   1   0.1132  0.2268  0.2268  10.50000  0.05    0.30
Q13   1   0.2222  0.1603  0.1603  10.50000  0.05    0.30
Q14   1   0.2585  0.0788  0.2585  10.50000  0.05    0.29
Q15   1   0.1514  0.1514  0.2686  10.50000  0.05    0.27
Q16   1   0.4502  0.3409  0.1220  11.00000  0.05    0.25
Q17   1   0.4260  0.2809  0.1378  11.00000  0.05    0.24
Q18   1   0.3024  0.4476  0.1728  10.50000  0.05    0.22
Q19   1   0.2739  0.2739  0.1308  10.50000  0.05    0.22
Q20   1   0.4366  0.4366  0.0543  10.50000  0.05    0.20
;
_shelx_res_checksum              1418
_shelx_hkl_file
;
   1   1   1 95618.2 816.681   1
  -1  -1  -1 95240.6 842.142   1
   0   0  -2 12.3643 23.8271   1
   0   0   2 141.578 38.2514   1
   0   2   2 3362.89 215.518   1
   2   2   0 3345.22 161.679   1
   0  -2  -2 2855.89 196.504   1
  -2  -2   0 2904.24 152.084   1
  -1  -1  -3 557.824 101.870   1
   1   3   1 573.276 102.771   1
   1   1  -3 605.098 59.6927   1
   1   1   3 490.055 93.2629   1
  -1  -3  -1 465.692 89.8055   1
  -1  -1   3 576.441 57.5740   1
  -3  -3   1 108897. 1014.93   1
  -3  -1  -3 107386. 1423.13   1
   3   3  -1 105555. 965.922   1
   3   3   1 108332. 1266.97   1
  -1  -3  -3 105007. 1419.05   1
   1   3   3 109249. 1447.29   1
  -3  -3  -1 103658. 1297.67   1
   3   3   3 8492.93 423.026   1
  -3  -3   3 7045.52 152.168   1
  -3  -3  -3 7836.68 415.906   1
   0   2   4 42.9749 83.1845   1
  -2   0  -4 5.70596 61.1834   1
   2   4   0 10.1057 49.7024   1
   0  -2  -4 4.82297 58.5865   1
   2   4  -2 36663.6 524.234   1
  -2  -2  -4 36473.1 889.852   1
   2   2   4 36305.2 851.857   1
  -2  -2   4 37099.5 425.209   1
  -2  -4  -2 35891.9 852.678   1
   2   4   2 36434.2 839.001   1
   4   2   4 4084.00 307.522   1
   2   4   4 4012.62 337.973   1
  -4  -2  -4 3946.28 326.425   1
  -2  -4  -4 4110.74 352.104   1
  -4  -4   2 4682.21 233.267   1
   4   4   2 4473.33 316.670   1
  -4  -4  -2 4062.04 318.236   1
  -1   1  -5 11186.8 427.820   1
  -1  -1  -5 10614.4 467.333   1
   1   1   5 12398.4 499.928   1
   1   1  -5 11155.2 370.960   1
  -1   1   5 11129.5 476.519   1
  -1  -1   5 11291.7 375.923   1
   1  -1  -5 10695.1 441.074   1
   1  -1   5 9675.77 392.626   1
   1   5   3 17076.3 733.213   1
   3   5  -1 15593.5 482.414   1
  -1  -3  -5 15038.3 637.201   1
  -1  -5  -3 15787.4 645.883   1
   3   5   1 15094.4 570.980   1
  -3  -1  -5 15947.9 632.452   1
   1   3   5 14725.1 621.797   1
   3   1   5 14853.6 572.015   1
   1   3  -5 15924.1 359.520   1
  -3  -5  -1 15602.6 575.582   1
  -3  -5   1 15578.4 471.133   1
   3   5   3 916.275 187.278   1
  -3  -3   5 615.025 44.6439   1
   3   5  -3 976.370 87.1195   1
  -3  -5  -3 1073.67 203.863   1
   5   3   3 636.523 153.196   1
  -3  -3  -5 728.459 171.015   1
  -5  -3  -3 751.872 166.542   1
   3   3   5 1083.56 185.941   1
   1   5   5 193521. 2739.05   1
  -1  -5  -5 187652. 2428.98   1
  -5  -5  -1 193333. 2215.34   1
   5   5   1 188578. 2074.13   1
   5   5  -1 188589. 1818.85   1
   5   5   3 18018.1 756.283   1
   3   5   5 15962.1 774.201   1
  -5  -5   3 16766.5 443.376   1
  -5  -5  -3 17201.7 744.564   1
  -5  -3  -5 15017.4 734.919   1
   5   3   5 15056.6 685.650   1
  -3  -5  -5 16803.8 796.410   1
  -5  -5  -5 53242.1 1431.80   1
   5   5   5 59550.4 1537.88   1
   0   0   6 90.1552 86.6042   1
   2   6   0 1613.34 207.749   1
  -2   0   6 1634.99 193.864   1
   0   2   6 1568.61 226.043   1
   0  -2  -6 1393.96 197.952   1
  -2   0  -6 1473.84 213.151   1
   0   2  -6 1708.19 174.092   1
   2   0   6 1637.23 194.755   1
  -4  -6   0 3.61211 81.7335   1
   0  -4  -6 30.6416 113.811   1
   2   4   6 1646.28 260.023   1
   2   4  -6 1240.67 86.3204   1
  -4  -2  -6 1522.85 258.940   1
   4   2   6 1513.70 227.660   1
   2   6   4 753.776 207.453   1
  -2  -4  -6 1279.97 242.112   1
  -2  -6  -4 1479.69 246.122   1
  -4  -6   2 1432.04 158.261   1
   4   6  -2 1312.43 149.426   1
  -4  -6  -2 1109.03 218.007   1
   4   6   2 1248.78 207.564   1
  -6  -4  -2 1369.39 212.286   1
  -4  -6  -4 2222.87 333.111   1
   4   4   6 1875.70 288.459   1
   4   6   4 2177.48 309.479   1
  -4  -4  -6 2074.04 301.310   1
  -6  -4  -4 1855.88 287.551   1
   6   4   4 1875.73 273.814   1
  -6  -6   0 64391.9 1343.59   1
   6   6   0 58111.8 1201.82   1
   4   6   6 43.1330 167.322   1
   6   4   6 267.865 178.350   1
  -6  -6   4 467.343 93.4153   1
  -6  -6  -4 479.316 202.838   1
  -6  -4  -6 279.933 206.870   1
   6   6   4 230.021 169.423   1
  -4  -6  -6 323.907 219.532   1
   1   1  -7 18818.5 610.039   1
   1  -1  -7 18052.7 675.724   1
  -1  -1   7 18110.5 583.919   1
  -1   1  -7 18934.9 691.417   1
   1  -1   7 18580.6 653.850   1
  -1  -1  -7 18046.7 736.851   1
   1   1   7 18640.8 719.357   1
  -1   1   7 17771.1 685.310   1
   1  -3  -7 38234.4 1118.77   1
  -3  -7  -1 38576.9 1032.16   1
  -1  -3  -7 37085.0 1134.94   1
  -3  -1   7 37142.4 880.637   1
   1   3  -7 36651.3 723.924   1
   3   7  -1 36795.8 899.942   1
   3   7   1 34996.3 996.159   1
  -3  -1  -7 36862.0 1132.66   1
   3   1   7 35886.9 1045.22   1
   1   3   7 36981.0 1149.13   1
  -1   3   7 40954.4 1307.84   1
  -3  -7  -3 181113. 2455.50   1
   3   3   7 175899. 2509.57   1
  -3  -3   7 172121. 1326.21   1
  -3  -3  -7 179179. 2555.18   1
   3   7  -3 179398. 1601.49   1
   3   7   3 177087. 2508.73   1
   1   5   7 4396.87 469.641   1
  -1  -5  -7 4206.72 436.232   1
  -5  -7  -1 3990.56 363.918   1
  -7  -5  -1 3876.74 356.530   1
  -7  -5   1 4351.01 339.471   1
  -5  -7   1 4523.77 340.059   1
   5   7   1 4200.89 368.301   1
   1   5  -7 3914.21 222.529   1
   5   7  -1 4826.02 335.905   1
  -5  -7   3 15000.8 496.721   1
   3   7  -5 10765.2 264.238   1
  -3  -5  -7 13875.0 793.211   1
  -5  -7  -3 13257.1 740.507   1
  -3  -7  -5 13670.7 777.363   1
   5   3   7 13808.0 744.067   1
   3   7   5 12619.7 755.118   1
   5   7  -3 14343.6 453.520   1
  -5  -3  -7 13764.7 801.694   1
   5   7   3 14489.6 743.897   1
  -7  -5  -3 12837.2 695.279   1
   3   5   7 13474.3 791.442   1
   5   5   7 7550.66 617.644   1
   5   7   5 6803.36 586.349   1
  -5  -5  -7 6826.62 586.050   1
  -5  -7  -5 7283.05 610.194   1
  -7  -5  -5 6536.33 569.786   1
   7   5   5 7221.51 583.606   1
  -7  -7  -1 79049.1 1721.01   1
   1   7   7 63650.8 2197.28   1
  -7  -7   1 75398.6 1480.96   1
   7   7   1 72124.1 1536.04   1
  -1  -7  -7 65713.7 1833.23   1
  -3  -7  -7 68051.9 1869.14   1
  -7  -7  -3 69030.0 1756.71   1
  -7  -7   3 66616.4 1181.41   1
   7   7   3 68454.5 1664.13   1
   3   7   7 66246.7 1981.85   1
  -5  -7  -7 18232.2 1027.78   1
   5   7   7 17416.3 997.292   1
   7   7   5 18283.6 955.544   1
  -7  -5  -7 17121.9 981.889   1
  -7  -7  -5 17777.6 975.080   1
  -7  -7   5 13779.2 383.134   1
   7   5   7 17068.1 943.773   1
   7   7   7 117346. 2620.51   1
   0   2   8 40.0161 144.084   1
   0  -2  -8 25.2093 136.486   1
   0   2  -8 12.3266 99.4712   1
  -2   0  -8 12.7331 127.632   1
   0  -2   8 16.3495 97.0899   1
  -2  -2   8 19931.9 601.913   1
   2   2  -8 21389.2 634.979   1
  -2   2  -8 20111.3 814.574   1
   2   2   8 19521.4 850.473   1
   2   8   2 20026.7 965.258   1
  -2   2   8 19594.3 904.919   1
  -2  -2  -8 18645.8 859.174   1
  -2  -4  -8 6963.99 565.195   1
   2   4  -8 7396.99 304.788   1
   2   8   4 6543.22 678.146   1
  -4  -2   8 6345.65 348.956   1
   4   2   8 6679.40 522.426   1
   4   8   2 6852.86 537.810   1
  -4  -2  -8 7789.18 617.959   1
   4   8  -2 7401.07 416.660   1
  -4  -8  -2 6916.37 510.446   1
   2   4   8 6448.11 567.320   1
   4   8  -4 294224. 1943.45   1
   6   8   0 26.9082 132.747   1
  -2  -8  -6 5156.62 571.115   1
  -2  -6  -8 5657.31 554.098   1
  -6  -8   2 5721.67 375.162   1
  -6  -8  -2 5934.23 500.647   1
   6   8   2 5622.48 491.267   1
   2   6  -8 4668.85 197.384   1
   2   8   6 5822.48 654.751   1
   6   8  -2 5407.60 344.591   1
   2   6   8 5319.40 563.447   1
  -8  -6  -2 5339.95 493.164   1
   6   8   4 4766.60 499.114   1
  -4  -6  -8 4814.64 548.256   1
  -6  -8  -4 4206.21 487.179   1
  -6  -4   8 2608.86 159.576   1
  -4  -8  -6 4596.17 525.773   1
  -6  -4  -8 4388.46 534.289   1
   6   4   8 4171.50 494.457   1
  -8  -6  -4 4034.79 484.022   1
   4   8   6 4425.57 534.046   1
   4   6   8 3141.64 468.666   1
   6   8   6 5187.73 592.271   1
  -6  -8  -6 5844.77 605.851   1
   6   6   8 5832.36 602.269   1
  -8  -6  -6 5224.75 563.029   1
  -8  -6   6 4060.72 245.722   1
   8   6   6 5713.15 589.595   1
  -8  -8   0 197694. 2795.34   1
  -8  -8  -2 17619.7 955.223   1
  -2  -8  -8 14182.5 952.484   1
  -8  -8   2 16756.9 744.497   1
   8   8   2 14741.5 790.950   1
   2   8   8 17531.1 1217.33   1
  -8  -8   4 240949. 2201.58   1
  -8  -8  -4 242758. 3708.59   1
   8   8   4 243035. 3486.77   1
   4   8   8 231874. 3968.59   1
   8   8   6 10018.4 810.837   1
  -1  -1   9 78493.6 1446.27   1
   1   1  -9 76979.3 1433.46   1
   1   1   9 72546.0 1612.32   1
   1  -1  -9 76957.5 1605.70   1
  -1   1  -9 77522.0 1579.75   1
  -1  -1  -9 75907.3 1728.33   1
  -1   1   9 75487.1 1650.54   1
   1  -1   9 77367.4 1546.46   1
  -1  -3  -9 34566.1 1233.34   1
   1   3  -9 35475.7 895.907   1
  -3   1   9 34634.4 1194.57   1
   3   9  -1 33548.6 1108.46   1
  -1   3   9 33493.8 1235.26   1
   3   1   9 32832.9 1137.88   1
  -3  -1  -9 35055.7 1255.30   1
  -3  -1   9 33871.3 926.303   1
   1  -3  -9 31864.2 1159.31   1
   1   3   9 32925.0 1225.04   1
  -1   3  -9 34038.4 1013.69   1
   3   9   1 32424.8 1195.63   1
  -3   1  -9 36304.7 1287.32   1
  -3  -3   9 222.429 103.717   1
   3   9   3 112.539 193.431   1
  -1  -5  -9 60980.3 1747.85   1
  -5  -9  -1 64652.8 1538.11   1
   1   5  -9 61598.6 1042.16   1
   1   5   9 63016.6 1883.67   1
   5   9   1 63825.4 1576.97   1
  -5  -9   1 65737.3 1402.19   1
   5   9  -1 61159.0 1346.88   1
   3   5   9 32211.8 1344.34   1
  -5  -9  -3 31704.2 1185.23   1
   5   9  -3 33599.3 821.331   1
  -3  -5  -9 33154.1 1349.43   1
  -3  -9  -5 30238.6 1278.12   1
   3   9  -5 28436.5 717.315   1
   3   9   5 32202.7 1405.90   1
  -5  -3  -9 35360.2 1431.24   1
   5   3   9 32194.2 1258.51   1
  -5  -3   9 30251.7 705.627   1
   5   9   3 31362.2 1226.43   1
  -5  -9  -5 120869. 2551.48   1
  -5  -5  -9 119225. 2700.72   1
   5   5   9 125559. 2716.30   1
   5   9   5 118442. 2617.27   1
  -7  -9   1 1278.57 241.413   1
  -9  -7  -1 815.444 300.420   1
  -7  -9  -1 1328.67 278.049   1
   7   9  -1 787.065 187.529   1
   1   7   9 208.683 340.061   1
   7   9   1 1662.17 289.072   1
  -1  -7  -9 572.871 278.376   1
  -7  -9   3 1942.05 236.763   1
  -7  -9  -3 1801.74 365.304   1
   3   7   9 601.851 356.871   1
  -9  -7  -3 1750.75 373.752   1
   7   9   3 2577.79 421.854   1
   3   9  -7 988.630 76.3336   1
   3   9   7 1372.65 431.726   1
  -3  -9  -7 3.24060 202.799   1
  -7  -9  -5 4793.23 582.748   1
   7   9   5 6309.55 657.733   1
  -9  -7   5 4682.33 339.435   1
   5   9   7 5117.33 631.704   1
  -9  -9   1 58580.4 1600.86   1
  -9  -9  -1 58939.0 1794.93   1
  -9  -9   3 42290.7 1132.19   1
  -9  -9  -3 44401.5 1714.93   1
   9   9   3 40968.4 1477.60   1
   0   0  10 263.528 168.401   1
   0  -2 -10 9245.37 635.086   1
   0   2 -10 9783.43 586.300   1
  -2   0 -10 9804.20 665.251   1
   2   0  10 9409.00 621.334   1
  -2   0  10 8625.69 570.808   1
   0   2  10 9343.19 673.009   1
   0  -2  10 9893.99 574.172   1
  -2   2  10 320234. 3766.93   1
  -2   2 -10 326537. 3653.43   1
  -4   0  10 63.7299 169.360   1
   4  10   0 4.26774 171.712   1
   0   4 -10 1.45476 121.402   1
   0  -4 -10 2.70124 186.333   1
   0   4  10 62.0465 212.592   1
   2   4 -10 1385.34 196.250   1
  -2  -4 -10 1559.53 349.367   1
  -4  -2  10 1230.02 199.783   1
  -4  -2 -10 1284.96 310.834   1
   4   2  10 678.820 255.663   1
   4  10  -2 1207.43 239.161   1
   4  10   2 670.283 290.836   1
   2   4  10 993.199 300.909   1
   4   4  10 202.635 242.013   1
  -4  -4 -10 886.357 333.573   1
   4  10   4 207.042 239.870   1
  -4 -10  -4 531.504 286.330   1
   4  10  -4 631.806 156.409   1
  -6 -10   0 394.044 203.052   1
   6  10   0 228.302 180.143   1
   0   6  10 647.807 371.124   1
   6  10   2 191644. 2999.77   1
  -6 -10  -2 189030. 2956.71   1
   2   6 -10 190249. 1643.88   1
   6  10  -2 191726. 2292.85   1
   2   6  10 185382. 3629.65   1
   6  10   4 24003.0 1199.96   1
   4  10  -6 18750.8 469.892   1
  -6 -10  -4 24534.9 1189.69   1
   4   6  10 23261.4 1268.85   1
   6   4  10 24198.4 1222.18   1
   4  10   6 22862.9 1357.19   1
   8  10   0 95.9722 177.472   1
  -8 -10  -2 95.5470 224.825   1
 -10  -8  -2 89.3131 277.458   1
   8  10   4 1198.60 365.719   1
 -10  -8   4 444.832 189.622   1
 -10 -10   0 43785.4 1588.62   1
 -10 -10   2 80054.4 1839.05   1
 -10 -10  -2 80381.3 2414.71   1
   1  -1 -11 44578.6 1371.34   1
   1   1 -11 46981.3 1266.53   1
  -1  -1 -11 47654.7 1499.80   1
   1   1  11 46937.3 1439.68   1
  -1   1 -11 47736.1 1445.93   1
  -1  -1  11 50795.0 1345.90   1
   1  -1  11 49259.5 1395.82   1
  -1   1  11 48433.6 1486.08   1
   1   3  11 42877.1 1554.63   1
   1  -3 -11 43665.1 1500.23   1
  -1  -3 -11 43717.4 1536.71   1
   1   3 -11 46517.1 1170.07   1
  -3  -1 -11 44601.7 1572.76   1
  -3   1  11 40522.4 1349.22   1
  -1   3 -11 44421.1 1321.85   1
   3   1  11 42324.6 1436.98   1
  -1   3  11 42145.1 1535.55   1
  -3   1 -11 47916.7 1607.86   1
  -3  -1  11 44505.2 1215.56   1
  -3  -3 -11 58095.8 1923.14   1
   3   3  11 62172.6 1925.47   1
  -1  -5 -11 721.209 324.226   1
  -5  -1 -11 1248.86 441.142   1
   5  11   1 716.814 295.966   1
   1   5  11 982.227 364.500   1
   5  11  -1 488.872 231.244   1
   1   5 -11 1038.14 205.291   1
  -5  -1  11 623.840 218.150   1
  -1   5  11 844.842 386.835   1
   3   5  11 21746.5 1241.50   1
  -5  -3  11 20024.4 651.480   1
   5   3  11 20776.3 1128.44   1
   5  11   3 19036.5 1123.25   1
   5  11  -3 20463.1 794.903   1
   5  11  -5 10498.5 492.208   1
   5  11   5 8213.37 862.385   1
  -7 -11   1 56829.2 1495.85   1
  -7 -11  -1 49561.1 1516.27   1
   7  11   1 52604.6 1570.89   1
   7  11  -1 54542.0 1414.49   1
   1   7 -11 51808.4 1084.27   1
  -7 -11  -3 66607.9 1927.21   1
   7  11   3 71619.0 2064.27   1
   7  11  -3 72410.4 1436.31   1
  -9 -11   1 885.164 261.931   1
  -9 -11  -1 605.582 307.979   1
   9  11   1 944.099 282.700   1
   9  11   3 2220.16 436.971   1
 -11 -11   1 18950.0 1043.47   1
   0   0 -12 136909. 2486.84   1
   0   0  12 137009. 2470.01   1
   0  -2 -12 5.66314 224.302   1
   0   2 -12 33.1753 174.218   1
  -2   0 -12 11.8527 233.175   1
   2   2 -12 4734.81 430.748   1
  -2   2  12 3587.40 517.384   1
  -2  -2 -12 4334.44 552.416   1
  -2  -2  12 4173.52 394.259   1
  -2   2 -12 3522.62 477.777   1
   2   2  12 4040.50 512.417   1
   0  -4 -12 167196. 3271.25   1
   0   4 -12 173169. 2487.07   1
  -4   0 -12 163177. 3352.71   1
  -4   0  12 173762. 2716.54   1
   0   4  12 171538. 3475.01   1
   2   4 -12 7104.64 480.469   1
  -4  -2  12 6502.11 466.786   1
   2   4  12 6370.03 712.079   1
   4   2  12 6591.37 661.745   1
   6  12   0 2.60307 208.025   1
  -6  -2  12 133.111 168.344   1
   6  12   2 9.70825 255.907   1
   6  12  -4 4070.99 408.985   1
   6  12   4 4329.44 601.482   1
  -8 -12   0 72828.7 1892.06   1
   8  12   0 74117.3 1837.70   1
  -8 -12  -2 15135.0 967.210   1
   8  12   2 15481.5 976.993   1
   8  12  -2 16013.2 814.286   1
   1  -1 -13 45409.0 1568.49   1
   1   1 -13 46121.6 1424.29   1
  -1   1  13 45462.6 1563.77   1
  -1  -1 -13 46110.5 1640.77   1
  -1   1 -13 42923.6 1498.54   1
   1   1  13 45906.9 1619.35   1
  -1  -1  13 44287.2 1349.35   1
   1  -1  13 45490.8 1505.74   1
   1   3 -13 13605.4 733.838   1
   1   3  13 12920.3 974.988   1
  -3  -1  13 13126.5 740.676   1
  -1   3 -13 12637.0 809.069   1
  -3   1 -13 11695.5 918.837   1
  -3   1  13 12755.7 872.448   1
   3   1  13 13403.7 934.096   1
  -1   3  13 10527.9 910.721   1
   1   5 -13 46236.2 1315.04   1
   5  13   1 51945.5 1918.89   1
   5  13  -1 51967.3 1761.08   1
  -5  -1  13 50336.6 1462.70   1
   5  13   3 30281.4 1649.90   1
   7  13   1 10459.1 822.917   1
   7  13  -1 9907.24 737.497   1
   9  13   1 41376.3 1557.98   1
   9  13  -1 41832.3 1512.94   1
   0   0 -14 101.947 232.012   1
   0   0  14 49.8372 246.437   1
   0   2 -14 1454.90 341.024   1
   0   2  14 2047.72 444.956   1
  -2   0  14 2340.72 409.193   1
  -2   0 -14 2301.36 467.187   1
   2   0  14 1442.59 392.040   1
  -2   2 -14 77837.5 2216.54   1
  -2   2  14 80824.7 2351.03   1
   0   4 -14 37.0076 226.894   1
  -4  -2  14 90.9327 210.776   1
   6  14   0 18460.1 1169.54   1
   6  14   2 4.27888 388.051   1
   1   1 -15 14008.6 922.016   1
  -1   1 -15 13761.4 969.635   1
  -1   1  15 14535.2 980.820   1
   1   1  15 13670.2 982.303   1
  -1  -1  15 14962.6 883.748   1
  -3   1  15 28425.0 1371.95   1
  -1   3 -15 27203.1 1293.88   1
  -3  -1  15 28538.0 1200.26   1
   0   0  16 79906.6 2208.27   1
  -2   0  16 50.0090 307.596   1
  -1  -1  17 30504.6 1450.78   1
   0   0   0    0.00    0.00   0
TITL marseno_016 in Fd-3m
REM Fd-3m (#227 in standard setting)
CELL 0.41427  10.012441  10.012441  10.012441  90.0000  90.0000  90.0000
ZERR    5.00   0.000353   0.000353   0.000353   0.0000   0.0000   0.0000
LATT  4
SYMM -x+3/4,-y+1/4, z+1/2
SYMM -x+1/4, y+1/2,-z+3/4
SYMM  x+1/2,-y+3/4,-z+1/4
SYMM  z, x, y
SYMM  z+1/2,-x+3/4,-y+1/4
SYMM -z+3/4,-x+1/4, y+1/2
SYMM -z+1/4, x+1/2,-y+3/4
SYMM  y, z, x
SYMM -y+1/4, z+1/2,-x+3/4
SYMM  y+1/2,-z+3/4,-x+1/4
SYMM -y+3/4,-z+1/4, x+1/2
SYMM  y+3/4, x+1/4,-z+1/2
SYMM -y,-x,-z
SYMM  y+1/4,-x+1/2, z+3/4
SYMM -y+1/2, x+3/4, z+1/4
SYMM  x+3/4, z+1/4,-y+1/2
SYMM -x+1/2, z+3/4, y+1/4
SYMM -x,-z,-y
SYMM  x+1/4,-z+1/2, y+3/4
SYMM  z+3/4, y+1/4,-x+1/2
SYMM  z+1/4,-y+1/2, x+3/4
SYMM -z+1/2, y+3/4, x+1/4
SYMM -z,-y,-x
SFAC O As
UNIT 30.00 20.00
TREF
HKLF 4
END
;
_shelx_hkl_checksum              37198
_shelx_shelxl_version_number     2014/7
loop_
_space_group_symop_operation_xyz
'x, y, z'
'-x+3/4, -y+1/4, z+1/2'
'-x+1/4, y+1/2, -z+3/4'
'x+1/2, -y+3/4, -z+1/4'
'z, x, y'
'z+1/2, -x+3/4, -y+1/4'
'-z+3/4, -x+1/4, y+1/2'
'-z+1/4, x+1/2, -y+3/4'
'y, z, x'
'-y+1/4, z+1/2, -x+3/4'
'y+1/2, -z+3/4, -x+1/4'
'-y+3/4, -z+1/4, x+1/2'
'y+3/4, x+1/4, -z+1/2'
'-y, -x, -z'
'y+1/4, -x+1/2, z+3/4'
'-y+1/2, x+3/4, z+1/4'
'x+3/4, z+1/4, -y+1/2'
'-x+1/2, z+3/4, y+1/4'
'-x, -z, -y'
'x+1/4, -z+1/2, y+3/4'
'z+3/4, y+1/4, -x+1/2'
'z+1/4, -y+1/2, x+3/4'
'-z+1/2, y+3/4, x+1/4'
'-z, -y, -x'
'x, y+1/2, z+1/2'
'-x+3/4, -y+3/4, z+1'
'-x+1/4, y+1, -z+5/4'
'x+1/2, -y+5/4, -z+3/4'
'z, x+1/2, y+1/2'
'z+1/2, -x+5/4, -y+3/4'
'-z+3/4, -x+3/4, y+1'
'-z+1/4, x+1, -y+5/4'
'y, z+1/2, x+1/2'
'-y+1/4, z+1, -x+5/4'
'y+1/2, -z+5/4, -x+3/4'
'-y+3/4, -z+3/4, x+1'
'y+3/4, x+3/4, -z+1'
'-y, -x+1/2, -z+1/2'
'y+1/4, -x+1, z+5/4'
'-y+1/2, x+5/4, z+3/4'
'x+3/4, z+3/4, -y+1'
'-x+1/2, z+5/4, y+3/4'
'-x, -z+1/2, -y+1/2'
'x+1/4, -z+1, y+5/4'
'z+3/4, y+3/4, -x+1'
'z+1/4, -y+1, x+5/4'
'-z+1/2, y+5/4, x+3/4'
'-z, -y+1/2, -x+1/2'
'x+1/2, y, z+1/2'
'-x+5/4, -y+1/4, z+1'
'-x+3/4, y+1/2, -z+5/4'
'x+1, -y+3/4, -z+3/4'
'z+1/2, x, y+1/2'
'z+1, -x+3/4, -y+3/4'
'-z+5/4, -x+1/4, y+1'
'-z+3/4, x+1/2, -y+5/4'
'y+1/2, z, x+1/2'
'-y+3/4, z+1/2, -x+5/4'
'y+1, -z+3/4, -x+3/4'
'-y+5/4, -z+1/4, x+1'
'y+5/4, x+1/4, -z+1'
'-y+1/2, -x, -z+1/2'
'y+3/4, -x+1/2, z+5/4'
'-y+1, x+3/4, z+3/4'
'x+5/4, z+1/4, -y+1'
'-x+1, z+3/4, y+3/4'
'-x+1/2, -z, -y+1/2'
'x+3/4, -z+1/2, y+5/4'
'z+5/4, y+1/4, -x+1'
'z+3/4, -y+1/2, x+5/4'
'-z+1, y+3/4, x+3/4'
'-z+1/2, -y, -x+1/2'
'x+1/2, y+1/2, z'
'-x+5/4, -y+3/4, z+1/2'
'-x+3/4, y+1, -z+3/4'
'x+1, -y+5/4, -z+1/4'
'z+1/2, x+1/2, y'
'z+1, -x+5/4, -y+1/4'
'-z+5/4, -x+3/4, y+1/2'
'-z+3/4, x+1, -y+3/4'
'y+1/2, z+1/2, x'
'-y+3/4, z+1, -x+3/4'
'y+1, -z+5/4, -x+1/4'
'-y+5/4, -z+3/4, x+1/2'
'y+5/4, x+3/4, -z+1/2'
'-y+1/2, -x+1/2, -z'
'y+3/4, -x+1, z+3/4'
'-y+1, x+5/4, z+1/4'
'x+5/4, z+3/4, -y+1/2'
'-x+1, z+5/4, y+1/4'
'-x+1/2, -z+1/2, -y'
'x+3/4, -z+1, y+3/4'
'z+5/4, y+3/4, -x+1/2'
'z+3/4, -y+1, x+3/4'
'-z+1, y+5/4, x+1/4'
'-z+1/2, -y+1/2, -x'
'-x, -y, -z'
'x-3/4, y-1/4, -z-1/2'
'x-1/4, -y-1/2, z-3/4'
'-x-1/2, y-3/4, z-1/4'
'-z, -x, -y'
'-z-1/2, x-3/4, y-1/4'
'z-3/4, x-1/4, -y-1/2'
'z-1/4, -x-1/2, y-3/4'
'-y, -z, -x'
'y-1/4, -z-1/2, x-3/4'
'-y-1/2, z-3/4, x-1/4'
'y-3/4, z-1/4, -x-1/2'
'-y-3/4, -x-1/4, z-1/2'
'y, x, z'
'-y-1/4, x-1/2, -z-3/4'
'y-1/2, -x-3/4, -z-1/4'
'-x-3/4, -z-1/4, y-1/2'
'x-1/2, -z-3/4, -y-1/4'
'x, z, y'
'-x-1/4, z-1/2, -y-3/4'
'-z-3/4, -y-1/4, x-1/2'
'-z-1/4, y-1/2, -x-3/4'
'z-1/2, -y-3/4, -x-1/4'
'z, y, x'
'-x, -y+1/2, -z+1/2'
'x-3/4, y+1/4, -z'
'x-1/4, -y, z-1/4'
'-x-1/2, y-1/4, z+1/4'
'-z, -x+1/2, -y+1/2'
'-z-1/2, x-1/4, y+1/4'
'z-3/4, x+1/4, -y'
'z-1/4, -x, y-1/4'
'-y, -z+1/2, -x+1/2'
'y-1/4, -z, x-1/4'
'-y-1/2, z-1/4, x+1/4'
'y-3/4, z+1/4, -x'
'-y-3/4, -x+1/4, z'
'y, x+1/2, z+1/2'
'-y-1/4, x, -z-1/4'
'y-1/2, -x-1/4, -z+1/4'
'-x-3/4, -z+1/4, y'
'x-1/2, -z-1/4, -y+1/4'
'x, z+1/2, y+1/2'
'-x-1/4, z, -y-1/4'
'-z-3/4, -y+1/4, x'
'-z-1/4, y, -x-1/4'
'z-1/2, -y-1/4, -x+1/4'
'z, y+1/2, x+1/2'
'-x+1/2, -y, -z+1/2'
'x-1/4, y-1/4, -z'
'x+1/4, -y-1/2, z-1/4'
'-x, y-3/4, z+1/4'
'-z+1/2, -x, -y+1/2'
'-z, x-3/4, y+1/4'
'z-1/4, x-1/4, -y'
'z+1/4, -x-1/2, y-1/4'
'-y+1/2, -z, -x+1/2'
'y+1/4, -z-1/2, x-1/4'
'-y, z-3/4, x+1/4'
'y-1/4, z-1/4, -x'
'-y-1/4, -x-1/4, z'
'y+1/2, x, z+1/2'
'-y+1/4, x-1/2, -z-1/4'
'y, -x-3/4, -z+1/4'
'-x-1/4, -z-1/4, y'
'x, -z-3/4, -y+1/4'
'x+1/2, z, y+1/2'
'-x+1/4, z-1/2, -y-1/4'
'-z-1/4, -y-1/4, x'
'-z+1/4, y-1/2, -x-1/4'
'z, -y-3/4, -x+1/4'
'z+1/2, y, x+1/2'
'-x+1/2, -y+1/2, -z'
'x-1/4, y+1/4, -z-1/2'
'x+1/4, -y, z-3/4'
'-x, y-1/4, z-1/4'
'-z+1/2, -x+1/2, -y'
'-z, x-1/4, y-1/4'
'z-1/4, x+1/4, -y-1/2'
'z+1/4, -x, y-3/4'
'-y+1/2, -z+1/2, -x'
'y+1/4, -z, x-3/4'
'-y, z-1/4, x-1/4'
'y-1/4, z+1/4, -x-1/2'
'-y-1/4, -x+1/4, z-1/2'
'y+1/2, x+1/2, z'
'-y+1/4, x, -z-3/4'
'y, -x-1/4, -z-1/4'
'-x-1/4, -z+1/4, y-1/2'
'x, -z-1/4, -y-1/4'
'x+1/2, z+1/2, y'
'-x+1/4, z, -y-3/4'
'-z-1/4, -y+1/4, x-1/2'
'-z+1/4, y, -x-3/4'
'z, -y-1/4, -x-1/4'
'z+1/2, y+1/2, x'
loop_
_atom_site_label
_atom_site_type_symbol
_atom_site_fract_x
_atom_site_fract_y
_atom_site_fract_z
_atom_site_U_iso_or_equiv
_atom_site_adp_type
_atom_site_occupancy
_atom_site_site_symmetry_order
_atom_site_calc_flag
_atom_site_refinement_flags_posn
_atom_site_refinement_flags_adp
_atom_site_refinement_flags_occupancy
As1 As 0.25964(5) 0.25964(5) 0.25964(5) 0.0096(4) Uani 1 6 d S T P
O1 O 0.3750 0.3750 0.1857(4) 0.0101(8) Uani 1 4 d S T P
loop_
_atom_site_aniso_label
_atom_site_aniso_U_11
_atom_site_aniso_U_22
_atom_site_aniso_U_33
_atom_site_aniso_U_23
_atom_site_aniso_U_13
_atom_site_aniso_U_12
As1 0.0096(4) 0.0096(4) 0.0096(4) -0.00049(14) -0.00049(14) -0.00049(14)
O1 0.0109(12) 0.0109(12) 0.0086(18) 0.000 0.000 -0.0005(15)
loop_
_atom_type_symbol
_atom_type_description
_atom_type_scat_dispersion_real
_atom_type_scat_dispersion_imag
_atom_type_scat_source
O O 0.0020 0.0020 'International Tables Vol C Tables 4.2.6.8 and 6.1.1.4'
As As 0.3110 0.7990 'International Tables Vol C Tables 4.2.6.8 and 6.1.1.4'
loop_
_geom_angle_atom_site_label_1
_geom_angle_atom_site_label_2
_geom_angle_atom_site_label_3
_geom_angle
_geom_angle_site_symmetry_1
_geom_angle_site_symmetry_3
O1 As1 O1 96.72(17) . 9
O1 As1 O1 96.72(17) 9 5
O1 As1 O1 96.72(17) . 5
As1 O1 As1 131.2(3) 26_554 .
loop_
_geom_bond_atom_site_label_1
_geom_bond_atom_site_label_2
_geom_bond_distance
_geom_bond_site_symmetry_2
As1 O1 1.7935(19) .
As1 O1 1.7935(19) 5
As1 O1 1.7935(19) 9
O1 As1 1.7935(19) 26_554
