#------------------------------------------------------------------------------
#$Date: 2015-09-04 08:12:49 +0300 (Fri, 04 Sep 2015) $
#$Revision: 153928 $
#$URL: svn://www.crystallography.net/cod/cif/4/51/35/4513575.cif $
#------------------------------------------------------------------------------
#
# This file is available in the Crystallography Open Database (COD),
# http://www.crystallography.net/
#
# All data on this site have been placed in the public domain by the
# contributors.
#
data_4513575
loop_
_publ_author_name
'Gu\'nka, Piotr A.'
'Dziubek, Kamil F.'
'G\/ladysiak, Andrzej'
'Dranka, Maciej'
'Piechota, Jacek'
'Hanfland, Michael'
'Katrusiak, Andrzej'
'Zachara, Janusz'
_publ_section_title
;
 Compressed Arsenolite As4O6and Its Helium Clathrate As4O6&#x00B7;2He
;
_journal_issue                   8
_journal_name_full               'Crystal Growth &amp; Design'
_journal_page_first              3740
_journal_paper_doi               10.1021/acs.cgd.5b00390
_journal_volume                  15
_journal_year                    2015
_chemical_formula_moiety         'As4 O6'
_chemical_formula_sum            'As4 O6'
_chemical_formula_weight         395.69
_chemical_name_common            arsenolite
_space_group_crystal_system      cubic
_space_group_IT_number           227
_space_group_name_Hall           '-F 4vw 2vw 3'
_space_group_name_H-M_alt        'F d -3 m'
_symmetry_space_group_name_Hall  '-F 4vw 2vw 3'
_symmetry_space_group_name_H-M   'F d -3 m :2'
_atom_sites_solution_primary     direct
_audit_creation_date             2014-10-15
_audit_creation_method
;
Olex2 1.2-beta
(compiled 2014.09.19 svn.r3010 for OlexSys, GUI svn.r4874)
;
_cell_angle_alpha                90
_cell_angle_beta                 90
_cell_angle_gamma                90
_cell_formula_units_Z            8
_cell_length_a                   10.0926(4)
_cell_length_b                   10.0926(4)
_cell_length_c                   10.0926(4)
_cell_measurement_pressure       9.27e6(9)
_cell_measurement_reflns_used    370
_cell_measurement_temperature    293(2)
_cell_measurement_theta_max      20.5020
_cell_measurement_theta_min      2.0230
_cell_volume                     1028.04(7)
_computing_cell_refinement
;
CrysAlisPro, Agilent Technologies,
Version 1.171.37.34 (release 22-05-2014 CrysAlis171 .NET)
(compiled May 22 2014,16:03:01)
;
_computing_data_collection
;
CrysAlisPro, Agilent Technologies,
Version 1.171.37.34 (release 22-05-2014 CrysAlis171 .NET)
(compiled May 22 2014,16:03:01)
;
_computing_data_reduction
;
CrysAlisPro, Agilent Technologies,
Version 1.171.37.34 (release 22-05-2014 CrysAlis171 .NET)
(compiled May 22 2014,16:03:01)
;
_computing_molecular_graphics    'Olex2 (Dolomanov et al., 2009)'
_computing_publication_material  'Olex2 (Dolomanov et al., 2009)'
_computing_structure_refinement  'ShelXL (Sheldrick, 2008)'
_computing_structure_solution    'ShelXT (Sheldrick, 2008)'
_diffrn_ambient_environment      He
_diffrn_ambient_pressure         9.27e6(9)
_diffrn_ambient_temperature      293(2)
_diffrn_detector                 'CCD plate'
_diffrn_measured_fraction_theta_full 0.857
_diffrn_measured_fraction_theta_max 0.731
_diffrn_measurement_details
;
  1 phi    148.00  212.00   0.5000    1.0000
omega____ theta____ kappa____ phi______ frames
   0.0000    0.0000    0.0000     -     128
;
_diffrn_measurement_device       'abstract diffractometer'
_diffrn_measurement_device_type
'MAR-CrysAlisPro-abstract goniometer: imported MAR images'
_diffrn_measurement_method       '\p scans'
_diffrn_orient_matrix_UB_11      -0.0240113000
_diffrn_orient_matrix_UB_12      -0.0004421000
_diffrn_orient_matrix_UB_13      -0.0333203000
_diffrn_orient_matrix_UB_21      0.0226310000
_diffrn_orient_matrix_UB_22      -0.0302823000
_diffrn_orient_matrix_UB_23      -0.0159193000
_diffrn_orient_matrix_UB_31      -0.0243916000
_diffrn_orient_matrix_UB_32      -0.0277051000
_diffrn_orient_matrix_UB_33      0.0179563000
_diffrn_radiation_monochromator  synchrotron
_diffrn_radiation_probe          x-ray
_diffrn_radiation_wavelength     0.41427
_diffrn_reflns_av_R_equivalents  0.0251
_diffrn_reflns_av_unetI/netI     0.0214
_diffrn_reflns_laue_measured_fraction_full 0.857
_diffrn_reflns_laue_measured_fraction_max 0.731
_diffrn_reflns_limit_h_max       14
_diffrn_reflns_limit_h_min       -12
_diffrn_reflns_limit_k_max       16
_diffrn_reflns_limit_k_min       -16
_diffrn_reflns_limit_l_max       11
_diffrn_reflns_limit_l_min       -10
_diffrn_reflns_number            474
_diffrn_reflns_point_group_measured_fraction_full 0.857
_diffrn_reflns_point_group_measured_fraction_max 0.731
_diffrn_reflns_theta_full        14.392
_diffrn_reflns_theta_max         19.170
_diffrn_reflns_theta_min         2.037
_diffrn_source                   synchrotron
_exptl_absorpt_coefficient_mu    5.908
_exptl_absorpt_correction_T_max  1.00000
_exptl_absorpt_correction_T_min  0.48127
_exptl_absorpt_correction_type   multi-scan
_exptl_absorpt_process_details
;
CrysAlisPro, Agilent Technologies,
Version 1.171.37.34 (release 22-05-2014 CrysAlis171 .NET)
(compiled May 22 2014,16:03:01)
Empirical absorption correction using spherical harmonics,
 implemented in SCALE3 ABSPACK scaling algorithm.
;
_exptl_crystal_density_diffrn    5.113
_exptl_crystal_description       block
_exptl_crystal_F_000             1440
_exptl_crystal_size_max          0.065
_exptl_crystal_size_mid          0.04
_exptl_crystal_size_min          0.02
_refine_diff_density_max         0.754
_refine_diff_density_min         -0.663
_refine_diff_density_rms         0.183
_refine_ls_extinction_method     none
_refine_ls_goodness_of_fit_ref   1.201
_refine_ls_hydrogen_treatment    undef
_refine_ls_matrix_type           full
_refine_ls_number_parameters     8
_refine_ls_number_reflns         95
_refine_ls_number_restraints     0
_refine_ls_restrained_S_all      1.201
_refine_ls_R_factor_all          0.0345
_refine_ls_R_factor_gt           0.0333
_refine_ls_shift/su_max          0.000
_refine_ls_shift/su_mean         0.000
_refine_ls_structure_factor_coef Fsqd
_refine_ls_weighting_details
'w=1/[\s^2^(Fo^2^)+(0.0370P)^2^+30.4680P] where P=(Fo^2^+2Fc^2^)/3'
_refine_ls_weighting_scheme      calc
_refine_ls_wR_factor_gt          0.0811
_refine_ls_wR_factor_ref         0.0823
_reflns_Friedel_coverage         0.000
_reflns_number_gt                91
_reflns_number_total             95
_reflns_threshold_expression     'I > 2\s(I)'
_cod_data_source_file            cg5b00390_si_002.cif
_cod_data_source_block           marseno_015
_cod_original_cell_volume        1028.04(12)
_cod_database_code               4513575
_shelx_space_group_comment
;
The symmetry employed for this shelxl refinement is uniquely defined
by the following loop, which should always be used as a source of
symmetry information in preference to the above space-group names.
They are only intended as comments.
;
_olex2_refinement_description
;
;
_shelx_res_file
;
    marseno_015.res created by SHELXL-2014/7

TITL marseno_015_a.res in Fd-3m
CELL 0.41427 10.0926 10.0926 10.0926 90 90 90
ZERR 8 0.0004 0.0004 0.0004 0 0 0
LATT 4
SYMM 0.75-X,0.25-Y,0.5+Z
SYMM 0.25-X,0.5+Y,0.75-Z
SYMM 0.5+X,0.75-Y,0.25-Z
SYMM +Z,+X,+Y
SYMM 0.5+Z,0.75-X,0.25-Y
SYMM 0.75-Z,0.25-X,0.5+Y
SYMM 0.25-Z,0.5+X,0.75-Y
SYMM +Y,+Z,+X
SYMM 0.25-Y,0.5+Z,0.75-X
SYMM 0.5+Y,0.75-Z,0.25-X
SYMM 0.75-Y,0.25-Z,0.5+X
SYMM 0.75+Y,0.25+X,0.5-Z
SYMM -Y,-X,-Z
SYMM 0.25+Y,0.5-X,0.75+Z
SYMM 0.5-Y,0.75+X,0.25+Z
SYMM 0.75+X,0.25+Z,0.5-Y
SYMM 0.5-X,0.75+Z,0.25+Y
SYMM -X,-Z,-Y
SYMM 0.25+X,0.5-Z,0.75+Y
SYMM 0.75+Z,0.25+Y,0.5-X
SYMM 0.25+Z,0.5-Y,0.75+X
SYMM 0.5-Z,0.75+Y,0.25+X
SYMM -Z,-Y,-X

SFAC As O
DISP As 0.311 0.799 1882.762
DISP O 0.002 0.002 10.067
UNIT 32.00064 48

L.S. 10 0 0
PLAN  20
REM Old TITL marseno_015 in Fd-3m #227
BOND $H
LIST 6
fmap 2 53
ACTA
REM <HKL>E:/X-Ray_Data_Backup/ESRF_id09_2014_10/data/arsenolite/arseno_015/str
REM uct/olex2_marseno_015/marseno_015.hkl</HKL>

WGHT    0.037000   30.467999
FVAR       1.56951
AS1   1    0.260744    0.260744    0.260744    10.16667    0.01038    0.01038 =
         0.01038   -0.00060   -0.00060   -0.00060
O1    2    0.375000    0.375000    0.186664    10.25000    0.01113    0.01113 =
         0.01024    0.00000    0.00000   -0.00109
HKLF 4

REM  marseno_015_a.res in Fd-3m
REM R1 =  0.0333 for      91 Fo > 4sig(Fo)  and  0.0345 for all      95 data
REM      8 parameters refined using      0 restraints

END

WGHT      0.0373     30.5683

REM Highest difference peak  0.754,  deepest hole -0.663,  1-sigma level  0.183
Q1    1   0.2592  0.2592  0.1876  10.50000  0.05    0.75
Q2    1   0.2675  0.2675  0.3306  10.50000  0.05    0.74
Q3    1   0.1937  0.1937  0.1937  10.16667  0.05    0.57
Q4    1   0.3850  0.4435  0.1961  11.00000  0.05    0.56
Q5    1   0.2383  0.1250  0.1250  10.25000  0.05    0.48
Q6    1   0.2387  0.2387  0.1080  10.50000  0.05    0.44
Q7    1   0.4427  0.3073  0.2087  10.50000  0.05    0.43
Q8    1   0.4515  0.2985  0.2060  10.50000  0.05    0.43
Q9    1   0.3167  0.3167  0.0987  10.50000  0.05    0.42
Q10   1   0.4817  0.4934  0.0253  10.33333  0.05    0.41
Q11   1   0.3095  0.4405  0.3095  10.16667  0.05    0.38
Q12   1   0.4433  0.3449  0.2082  11.00000  0.05    0.37
Q13   1   0.2234  0.1871  0.0629  10.50000  0.05    0.33
Q14   1   0.1836  0.1836  0.2950  10.50000  0.05    0.32
Q15   1   0.2122  0.2122  0.0777  10.50000  0.05    0.31
Q16   1   0.3750  0.3750  0.2746  10.25000  0.05    0.31
Q17   1   0.4682  0.2818  0.1689  10.50000  0.05    0.29
Q18   1   0.3750  0.3750  0.1115  10.25000  0.05    0.28
Q19   1   0.3848  0.4094  0.2219  11.00000  0.05    0.28
Q20   1   0.3544  0.3956  0.1179  10.50000  0.05    0.26
;
_shelx_res_checksum              31641
_shelx_hkl_file
;
   1  -1  -1 107523. 1184.89   1
  -1   1   1 102480. 1204.92   1
   0  -2   0 114.042 37.0658   1
   0   2   0 8.35546 11.0731   1
  -2   2   0 1764.06 202.897   1
   2   0  -2 2095.09 172.965   1
   2  -2   0 1961.97 214.548   1
  -2   0   2 1914.78 174.355   1
   3  -1  -1 912.040 148.158   1
  -3   1   1 792.060 138.818   1
   1  -3  -1 865.423 146.996   1
  -1   3   1 981.894 150.329   1
   1   3  -1 790.154 88.4864   1
   1  -3   1 723.858 124.376   1
  -1  -3   1 895.184 96.0101   1
   3   1  -3 113155. 1376.13   1
  -3   3   1 114727. 1963.53   1
  -3  -1   3 111961. 1419.99   1
   3  -1  -3 108038. 1775.38   1
  -3   1   3 113481. 1813.21   1
  -1   3   3 113196. 1897.72   1
   3  -3  -1 116737. 2011.00   1
  -3   3   3 13493.6 735.129   1
  -3  -3   3 12367.1 269.998   1
   2   4   0 10.7814 6.41801   1
   0  -4  -2 32.4081 32.8480   1
  -2   4   0 36.8665 46.4356   1
   2  -4   0 6.33767 31.5449   1
   0   4   2 12.7077 28.1308   1
  -4   2   2 37140.5 1158.05   1
  -2  -4   2 38859.9 585.281   1
  -2   4   2 40420.1 1257.36   1
   4   2  -2 37794.1 721.988   1
   4  -2  -2 38012.1 1166.33   1
   2  -4  -2 38372.1 1210.21   1
   4  -4  -2 5953.59 534.429   1
  -4  -2   4 6645.93 358.728   1
  -2   4   4 5308.27 481.165   1
   4  -2  -4 6644.01 526.394   1
  -4   4   2 5742.28 533.965   1
   2  -4  -4 5717.01 508.029   1
  -4   2   4 5915.16 499.325   1
  -1   5   1 16422.3 794.014   1
   1  -5   1 16714.8 792.904   1
   1   5  -1 16474.2 605.161   1
   1  -5  -1 17535.8 806.033   1
   1   5   1 16479.1 694.091   1
  -1   5  -1 15703.2 712.293   1
  -1  -5   1 17200.5 649.783   1
   1  -5  -3 17034.8 851.985   1
   3   5  -1 18582.0 547.414   1
   5   1  -3 17823.4 686.885   1
   3  -5  -1 17169.3 905.883   1
  -5   3   1 16076.4 865.659   1
   5  -1  -3 17692.7 828.201   1
   5  -3  -1 17374.9 928.463   1
  -3   5   1 17628.7 907.326   1
  -5   1   3 17508.3 827.572   1
  -1   5   3 16358.3 842.798   1
  -5  -1   3 17848.3 669.279   1
  -5   3   3 785.414 214.924   1
  -3   3   5 963.008 211.420   1
  -3   5   3 989.599 217.558   1
   5  -3  -3 1032.90 221.348   1
   3  -3  -5 981.619 234.036   1
   3  -5  -3 1025.98 230.884   1
   5   3  -3 968.304 106.748   1
  -3  -5   3 788.631 63.1840   1
   5  -1  -5 206871. 2966.07   1
  -5  -1   5 199957. 2605.68   1
  -5   1   5 210742. 3079.29   1
   5   1  -5 204993. 2735.40   1
   5  -5  -1 207307. 3651.52   1
  -5   5   1 205913. 3446.52   1
  -3   5   5 20127.7 1134.97   1
   5  -3  -5 22047.3 1133.53   1
  -5   5   3 21821.4 1213.05   1
   5  -5  -3 20400.6 1157.70   1
  -5  -3   5 21313.0 675.357   1
   3  -5  -5 19342.1 1083.27   1
  -5   3   5 20639.3 1086.56   1
  -5   5   5 69018.9 2197.56   1
   5  -5  -5 72019.2 2265.88   1
   2   6   0 1165.29 183.175   1
  -2   6   0 949.145 207.021   1
   0  -6   2 908.159 178.853   1
   6   0  -2 1108.01 216.314   1
   2  -6   0 978.510 207.361   1
   0  -6  -2 990.046 199.784   1
   0   6   2 1196.96 230.696   1
   6   0  -4 98.5985 48.4229   1
  -6   0   4 11.8846 39.9858   1
   4  -6   0 35.6807 65.0696   1
  -4   0   6 17.9028 49.9091   1
  -4   6   0 20.4876 42.2981   1
   4   6  -2 1856.67 138.509   1
   6  -4  -2 1964.63 360.250   1
  -2   6   4 2242.29 383.348   1
  -6   2   4 2434.42 359.956   1
  -6   4   2 2215.02 357.843   1
  -4   6   2 1904.92 334.264   1
   6  -2  -4 2292.80 359.724   1
  -4   2   6 1868.12 308.055   1
   4  -6  -2 2021.91 361.997   1
   2  -6  -4 2263.08 364.125   1
   6   2  -4 2284.69 235.528   1
  -6  -2   4 2071.86 238.527   1
   6  -4  -4 3133.87 465.189   1
  -4   6   4 3310.77 493.320   1
  -4   4   6 2916.56 432.347   1
   4  -4  -6 3021.02 457.014   1
  -6   4   4 3069.02 473.310   1
   4  -6  -4 3174.89 444.337   1
  -6   0   6 77274.3 1967.22   1
   6   0  -6 72872.1 1853.87   1
  -4   6   6 897.667 279.889   1
  -6   6   4 1540.01 366.735   1
  -6   4   6 1677.27 345.501   1
   6  -6  -4 1005.54 288.724   1
   4  -6  -6 1371.06 331.274   1
   6  -4  -6 1632.39 337.451   1
  -6  -4   6 1265.15 171.089   1
  -1   7  -1 21429.8 1000.33   1
   1   7  -1 21812.9 867.223   1
   1  -7   1 21027.3 1035.19   1
   1  -7  -1 20922.8 1035.80   1
   1   7   1 22090.8 1008.65   1
  -1  -7   1 22439.0 883.616   1
  -1   7   1 20595.5 1059.30   1
   3  -7   1 45684.8 1769.09   1
   7   1  -3 44914.2 1348.29   1
   3   7  -1 46963.0 1109.93   1
  -7   1   3 44483.8 1471.96   1
  -1  -7   3 46319.4 1321.07   1
   3  -7  -1 45688.7 1689.24   1
   7  -1  -3 43846.5 1534.03   1
   1  -7  -3 45448.5 1632.54   1
  -3   7   1 46143.5 1701.07   1
  -3   7  -1 45973.2 1627.01   1
  -1   7   3 45823.0 1703.13   1
  -3  -7   3 205636. 1909.28   1
   7   3  -3 205292. 2337.99   1
   7  -3  -3 209738. 3780.53   1
  -7   3   3 210344. 3662.76   1
  -3   7   3 213551. 3855.36   1
   3  -7  -3 204952. 3688.31   1
   5   7  -1 4773.45 331.069   1
  -7   1   5 4920.53 529.777   1
  -5   7   1 4853.25 606.017   1
  -7  -1   5 5182.08 460.858   1
   5  -7  -1 4968.33 616.822   1
   7  -1  -5 5250.63 532.903   1
  -5   1   7 4194.88 465.765   1
   7   1  -5 5618.96 474.287   1
   3  -7  -5 15345.8 1058.07   1
  -7  -3   5 15793.6 668.810   1
  -7   3   5 15188.0 1060.45   1
  -3  -7   5 14035.7 541.982   1
  -5   7   3 15212.1 1133.41   1
   7   3  -5 15468.3 644.954   1
   7  -3  -5 16031.9 1036.79   1
  -7   5   3 15741.4 1113.82   1
   7   5  -3 11812.3 377.776   1
   7  -5  -3 14902.7 1117.82   1
  -3   7   5 14348.2 1056.28   1
  -5   3   7 14837.0 1029.42   1
   5  -7  -3 15745.9 1156.93   1
  -5   7   5 7157.05 784.264   1
   7  -5  -5 6930.30 744.895   1
   5  -7  -5 7655.07 802.321   1
  -7   5   5 7054.13 787.660   1
  -5   5   7 6324.24 697.870   1
   5  -5  -7 7502.49 820.586   1
  -7  -1   7 85145.9 2106.57   1
  -7   1   7 84617.9 2390.32   1
   7  -1  -7 80559.0 2258.04   1
   7  -7  -3 76690.1 2789.78   1
  -7  -3   7 81023.0 1746.20   1
  -7   3   7 82300.5 2559.35   1
   7  -3  -7 83577.4 2498.14   1
  -7   7   3 80878.0 2772.65   1
  -7  -5   7 17803.4 585.732   1
  -7   5   7 18076.4 1278.28   1
   7  -5  -7 20212.9 1332.98   1
  -5   7   7 17842.0 1293.15   1
   5  -7  -7 20238.4 1417.66   1
   7  -7  -5 20373.5 1414.17   1
   7  -7  -7 119310. 3568.60   1
  -2   8   0 71.2389 91.5882   1
   2  -8   0 27.4991 30.3694   1
   2   8  -2 19292.6 792.631   1
   2  -8  -2 17543.4 1061.79   1
   8  -2  -2 20079.0 1362.86   1
   2  -8   2 19199.4 1185.31   1
  -2  -8   2 18917.2 778.441   1
   2   8   2 19716.0 1084.61   1
  -2   8   2 18184.7 1134.51   1
   4   8  -2 10444.5 477.109   1
  -4   8   2 11251.2 959.406   1
  -8   2   4 10767.6 852.125   1
   8  -4  -2 9606.10 989.271   1
   2  -8  -4 10642.5 903.842   1
   8  -2  -4 10145.3 844.632   1
  -2   8   4 11246.2 935.001   1
   8   2  -4 10264.9 632.351   1
  -2  -8   4 9072.92 582.877   1
   4  -8  -2 11376.5 1001.46   1
   8  -4  -4 271175. 4832.85   1
   8   4  -4 271724. 2521.73   1
  -8   0   6 1.69992 69.6933   1
  -6   0   8 4.06308 46.0824   1
   6  -8   0 88.3868 109.689   1
   8   0  -6 11.5656 48.3842   1
  -8  -2   6 6019.99 496.050   1
  -6   8   2 6346.42 745.730   1
  -8   2   6 6758.89 715.324   1
   8  -2  -6 5987.73 666.375   1
   6   8  -2 4824.44 263.625   1
   8  -6  -2 5514.98 753.358   1
  -8   6   2 6110.23 734.478   1
   8   2  -6 5742.73 486.925   1
   6  -8  -2 5577.15 760.521   1
  -6   2   8 5912.02 682.752   1
   6  -8  -4 6306.48 838.601   1
  -8   6   4 6370.42 789.234   1
  -6   8   4 6780.67 840.264   1
  -8   4   6 6430.18 779.941   1
   8  -4  -6 7383.70 789.892   1
  -4   8   6 6101.38 759.992   1
   4  -8  -6 7626.74 822.784   1
  -6   4   8 5672.84 683.491   1
   8  -6  -4 5716.16 772.521   1
  -8   6   6 7382.75 907.826   1
   8  -6  -6 7565.23 882.912   1
  -6   8   6 6829.41 831.641   1
   6  -8  -6 7459.91 873.132   1
  -6   6   8 6186.86 786.702   1
  -6  -6   8 5887.46 388.836   1
   6  -6  -8 8383.29 988.373   1
  -8   0   8 164833. 3416.17   1
  -8  -2   8 23672.6 1145.02   1
  -8   2   8 23754.3 1454.52   1
   8  -8  -2 18738.1 1512.34   1
  -8   8   2 20326.7 1529.47   1
   8  -2  -8 22866.6 1353.55   1
  -8  -4   8 210621. 2815.47   1
  -8   4   8 213503. 4724.96   1
   8  -4  -8 210311. 4460.11   1
   8  -8  -4 208299. 5212.65   1
   8  -6  -8 15139.3 1310.19   1
  -1   9  -1 88259.8 2309.69   1
   1   9  -1 88160.1 2063.81   1
   1  -9  -1 85968.4 2394.25   1
  -1  -9   1 89270.7 2068.97   1
  -1   9   1 86204.2 2500.81   1
   1  -9   1 87987.1 2386.25   1
  -1  -9  -1 84908.8 2191.32   1
   1   9   1 88802.5 2299.59   1
   3   9  -1 41644.3 1305.42   1
   1  -9   3 42911.4 1798.27   1
   9   1  -3 42407.5 1721.98   1
   9  -1  -3 42583.3 1938.78   1
   3  -9   1 40993.6 1875.38   1
  -3   9  -1 40252.8 1749.02   1
  -1   9   3 40663.4 1791.02   1
   1  -9  -3 39572.4 1714.93   1
   3  -9  -1 39985.5 1863.96   1
   3   9   1 44366.8 1630.74   1
   1   9   3 44558.5 1947.10   1
   9   3  -3 111.454 62.3834   1
  -3   9   3 141.047 123.337   1
   3  -9  -3 24.9260 35.7596   1
  -3  -9   3 12.6595 27.9617   1
  -9   1   5 74271.1 2257.77   1
  -5   9   1 72327.4 2589.41   1
   9   1  -5 75274.6 2065.10   1
   5   9  -1 72765.1 1541.14   1
   5  -9  -1 76998.3 2809.79   1
   9  -1  -5 77134.5 2380.81   1
  -9  -1   5 77213.3 1987.81   1
  -9   5   3 33916.3 1828.96   1
   5  -9  -3 35747.5 1886.10   1
  -9   3   5 36686.8 1772.33   1
   9   3  -5 35425.6 1116.06   1
  -5   9   3 40289.3 2024.79   1
   9   5  -3 36635.1 1099.74   1
   9  -5  -3 34985.1 2040.81   1
  -3   9   5 35399.9 1870.67   1
   3  -9  -5 35932.7 1805.58   1
   9  -3  -5 38691.2 1892.37   1
  -9   5   5 139557. 3768.23   1
  -5   9   5 137229. 3906.93   1
   5  -9  -5 137009. 3834.59   1
   9  -5  -5 140070. 4032.40   1
  -9  -1   7 1295.95 272.962   1
  -7  -1   9 48.7552 69.3349   1
  -9   1   7 976.438 276.574   1
  -7   1   9 1350.58 346.415   1
   9   1  -7 1284.93 267.522   1
   7  -9  -1 671.826 288.560   1
   9  -1  -7 1731.63 341.985   1
  -7   9   1 585.029 234.606   1
  -9   7   3 2215.58 490.971   1
  -9  -3   7 2579.74 332.482   1
  -9   3   7 2907.13 516.834   1
   7  -9  -3 2249.15 520.309   1
   9  -3  -7 2797.80 498.801   1
   9   7  -3 1327.58 120.737   1
   9  -7  -3 1484.07 463.574   1
  -7   3   9 1915.07 446.679   1
  -9   5   7 5410.93 776.636   1
   9  -5  -7 5234.63 744.039   1
  -7  -5   9 4979.73 461.736   1
   9  -7  -5 4160.98 756.912   1
  -7   5   9 3652.61 623.737   1
  -9  -1   9 63275.3 2224.08   1
  -9   1   9 68667.2 2627.33   1
  -9  -3   9 47275.7 1612.89   1
  -9   3   9 44031.4 2216.47   1
   9  -3  -9 44502.5 2181.53   1
   0  10   0 93.9997 82.5641   1
   2  10   0 10553.0 777.276   1
  -2  10   0 11192.1 931.377   1
   0  10   2 11587.9 946.733   1
   0 -10  -2 10556.1 871.459   1
   0 -10   2 10551.3 843.792   1
   2 -10   0 11809.1 1012.27   1
  -2 -10   0 11091.6 819.879   1
   0  10  -2 11588.9 816.021   1
   2  10  -2 296483. 3646.44   1
  -2  10   2 291426. 5242.45   1
   2 -10  -2 290081. 5054.27   1
  -2 -10   2 291942. 3668.06   1
   2 -10   2 287240. 5042.64   1
   2  10   2 291176. 4739.66   1
   0  10   4 38.1126 93.0082   1
   0 -10   4 1.87114 10.9590   1
  10   0  -4 140.226 84.9256   1
   4  10   0 94.0590 87.9391   1
   4 -10   0 27.0421 93.1196   1
   4  10  -2 2244.27 288.506   1
  -4  10   2 2737.47 510.136   1
  10   2  -4 1776.03 328.378   1
  -2  10   4 2269.24 455.143   1
   4 -10  -2 2291.77 486.121   1
   2 -10  -4 2211.87 435.569   1
  10  -2  -4 1735.52 442.836   1
  -2 -10   4 1938.97 311.216   1
   4 -10  -4 1527.00 391.458   1
  -4  10   4 778.886 312.904   1
  10   4  -4 721.623 175.755   1
  10  -4  -4 934.171 324.059   1
 -10   4   4 342.958 218.975   1
 -10   0   6 1966.00 359.070   1
   6 -10   0 2002.35 513.536   1
  10   0  -6 2345.31 392.922   1
  10  -2  -6 155236. 3650.17   1
 -10   2   6 150173. 3633.47   1
  -6  10   2 158140. 4274.11   1
   6  10  -2 155374. 2102.24   1
  10   2  -6 166360. 2926.30   1
   6 -10  -2 155907. 4433.78   1
  10   6  -4 23651.1 682.278   1
  10  -4  -6 28813.2 1734.67   1
 -10   4   6 28136.0 1739.10   1
   6 -10  -4 30206.5 1901.19   1
  -4 -10   6 24711.3 776.700   1
  10  -6  -4 28697.4 2039.55   1
   4 -10  -6 31119.5 1875.07   1
  10  -6  -6 92631.7 3434.36   1
 -10   2   8 74.4774 170.211   1
  -8  -2  10 118.567 116.508   1
  -8   2  10 182.896 206.020   1
  10  -4  -8 1652.74 383.918   1
  -8  -4  10 1942.71 364.131   1
 -10   0  10 54911.6 2364.61   1
 -10  -2  10 60331.3 2162.94   1
 -10   2  10 59214.2 2816.59   1
  -1  11  -1 54189.9 2027.02   1
   1  11  -1 55376.7 1861.61   1
  -1  11   1 54802.5 2163.70   1
   1 -11  -1 56328.7 2172.54   1
   1  11   1 53887.3 2020.29   1
  -1 -11   1 58600.4 1921.47   1
   1 -11   1 58704.5 2242.67   1
   3 -11  -1 50033.9 2293.29   1
  -3  11   1 49220.5 2174.04   1
   3  11  -1 51194.6 1631.09   1
  -1  11   3 49057.9 2191.69   1
   1 -11   3 49310.0 2006.45   1
   3  11   1 52056.7 1910.26   1
   3 -11   1 49691.9 2306.30   1
   1  11   3 51825.9 2238.80   1
   1 -11  -3 50418.5 2172.29   1
  -1 -11   3 53218.5 1848.27   1
  -3  11  -1 51867.4 2200.24   1
  -3  11   3 73968.1 2958.11   1
   3 -11  -3 75217.8 2856.31   1
  -3 -11   3 77269.0 1874.65   1
  -1  11   5 1378.89 422.130   1
  -5  11   1 1782.91 433.594   1
  11  -1  -5 1206.70 332.434   1
  11   1  -5 1384.24 327.660   1
   5 -11  -1 1898.53 500.602   1
   5  11  -1 1789.32 293.068   1
  -1 -11   5 1344.80 313.095   1
   5 -11   1 1648.54 479.173   1
 -11   3   5 21296.3 1503.46   1
  -3 -11   5 22462.3 944.383   1
   5 -11  -3 21755.6 1631.33   1
   3 -11  -5 22926.2 1609.29   1
  11  -3  -5 20137.2 1559.16   1
  11   3  -5 23079.7 1193.15   1
  11   5  -5 12178.8 647.639   1
  11  -5  -5 11289.6 1329.38   1
 -11   1   7 52930.7 2148.99   1
  11  -1  -7 56308.3 2196.22   1
  11   1  -7 55420.2 1938.24   1
   7  11  -1 55889.5 1492.26   1
 -11  -1   7 56569.6 2026.77   1
 -11   3   7 67226.1 2682.36   1
  11  -3  -7 74665.0 2779.21   1
 -11   1   9 705.782 279.365   1
  11  -1  -9 847.401 290.311   1
  11  -3  -9 1187.35 361.446   1
 -11  -1  11 17434.4 1369.14   1
 -11   1  11 13775.2 1389.46   1
   0  12   0 103736. 2897.99   1
   0 -12  -2 2.69097 103.349   1
   0 -12   2 122.866 99.2560   1
   2 -12   0 55.9116 71.3695   1
   2  12  -2 4034.58 504.595   1
  -2  12   2 3770.17 620.393   1
  -2 -12   2 3280.03 414.367   1
   2 -12  -2 4147.16 656.857   1
   2  12   2 3362.68 547.879   1
   2 -12   2 3178.35 559.462   1
  -4  12   0 144360. 4024.20   1
   4  12   0 146513. 3054.15   1
   0  12   4 138309. 4159.49   1
   4 -12   0 149221. 4564.62   1
   4  12  -2 11145.3 820.069   1
  -2 -12   4 9744.67 726.924   1
   4 -12  -2 9559.29 1075.20   1
   2 -12  -4 8980.41 1019.03   1
  12   0  -6 22.7249 55.3334   1
  12   2  -6 77.6043 64.8882   1
  -2 -12   6 33.9133 67.1216   1
  12   4  -6 5390.44 527.503   1
  12  -4  -6 5049.06 822.169   1
 -12   0   8 53265.5 2164.15   1
  12   0  -8 53647.3 2077.26   1
 -12   2   8 18126.2 1395.32   1
  12  -2  -8 21809.2 1514.84   1
  12   2  -8 22152.5 1259.48   1
  12  -2 -10 2373.73 449.929   1
  -1  13  -1 51518.3 2194.00   1
   1  13  -1 50634.0 2016.11   1
   1 -13   1 48731.0 2148.92   1
  -1  13   1 48492.1 2237.73   1
   1  13   1 47962.8 2102.46   1
   1 -13  -1 50446.0 2230.84   1
  -1 -13   1 46839.7 1819.26   1
   3  13  -1 16798.8 1084.96   1
   3 -13  -1 14974.5 1338.73   1
  -1 -13   3 16274.6 1067.63   1
  -1  13   3 17032.5 1422.77   1
   3  13   1 15880.6 1166.96   1
   1  13   3 15750.5 1341.50   1
   1 -13   3 13421.2 1157.13   1
   3 -13   1 13810.9 1396.31   1
   1 -13  -3 14856.6 1350.42   1
   5  13  -1 59794.4 1953.65   1
  13  -1  -5 58502.1 2816.63   1
  -1 -13   5 61702.7 2312.06   1
  13  -3  -5 34834.3 2548.32   1
  13   3  -5 39668.8 2078.80   1
  13  -1  -7 9836.47 996.966   1
  13   1  -7 11350.1 1001.60   1
  13  -1  -9 38760.5 2017.01   1
  13   1  -9 44510.4 2027.49   1
   0 -14   0 47.9995 58.4375   1
   2 -14   0 3336.08 621.677   1
   0 -14   2 3452.15 533.275   1
   2  14   0 2780.17 455.470   1
   0  14   2 2859.48 553.939   1
   0 -14  -2 2885.00 566.373   1
   2  14   2 61741.7 2655.63   1
  -2 -14   2 66014.6 2240.25   1
   2 -14   2 58666.7 2842.22   1
  -2 -14   4 55.7678 147.835   1
  14   0  -6 24282.9 1935.49   1
  14  -2  -6 41628.7 2666.84   1
  14   0  -8 3.33435 97.6438   1
   1  15  -1 18749.2 1344.28   1
   1  15   1 15933.4 1297.31   1
   1 -15   1 16107.1 1362.54   1
   1 -15  -1 15550.5 1309.12   1
  -1 -15   1 16965.9 1224.56   1
  -1  15  -1 18524.8 1446.88   1
   1 -15   3 29664.4 1861.62   1
   3  15   1 28251.9 1732.51   1
  -1 -15   3 25788.3 1535.65   1
   0 -16   0 54659.4 2432.48   1
   2  16   0 123.518 151.315   1
   0 -16   2 39.6588 79.8081   1
   0   0   0    0.00    0.00   0
TITL marseno_015 in Fd-3m
REM Fd-3m (#227 in standard setting)
CELL 0.41427  10.092617  10.092617  10.092617  90.0000  90.0000  90.0000
ZERR    5.00   0.000356   0.000356   0.000356   0.0000   0.0000   0.0000
LATT  4
SYMM -x+3/4,-y+1/4, z+1/2
SYMM -x+1/4, y+1/2,-z+3/4
SYMM  x+1/2,-y+3/4,-z+1/4
SYMM  z, x, y
SYMM  z+1/2,-x+3/4,-y+1/4
SYMM -z+3/4,-x+1/4, y+1/2
SYMM -z+1/4, x+1/2,-y+3/4
SYMM  y, z, x
SYMM -y+1/4, z+1/2,-x+3/4
SYMM  y+1/2,-z+3/4,-x+1/4
SYMM -y+3/4,-z+1/4, x+1/2
SYMM  y+3/4, x+1/4,-z+1/2
SYMM -y,-x,-z
SYMM  y+1/4,-x+1/2, z+3/4
SYMM -y+1/2, x+3/4, z+1/4
SYMM  x+3/4, z+1/4,-y+1/2
SYMM -x+1/2, z+3/4, y+1/4
SYMM -x,-z,-y
SYMM  x+1/4,-z+1/2, y+3/4
SYMM  z+3/4, y+1/4,-x+1/2
SYMM  z+1/4,-y+1/2, x+3/4
SYMM -z+1/2, y+3/4, x+1/4
SYMM -z,-y,-x
SFAC O As
UNIT 30.00 20.00
TREF
HKLF 4
END
;
_shelx_hkl_checksum              13894
_shelx_shelxl_version_number     2014/7
loop_
_space_group_symop_operation_xyz
'x, y, z'
'-x+3/4, -y+1/4, z+1/2'
'-x+1/4, y+1/2, -z+3/4'
'x+1/2, -y+3/4, -z+1/4'
'z, x, y'
'z+1/2, -x+3/4, -y+1/4'
'-z+3/4, -x+1/4, y+1/2'
'-z+1/4, x+1/2, -y+3/4'
'y, z, x'
'-y+1/4, z+1/2, -x+3/4'
'y+1/2, -z+3/4, -x+1/4'
'-y+3/4, -z+1/4, x+1/2'
'y+3/4, x+1/4, -z+1/2'
'-y, -x, -z'
'y+1/4, -x+1/2, z+3/4'
'-y+1/2, x+3/4, z+1/4'
'x+3/4, z+1/4, -y+1/2'
'-x+1/2, z+3/4, y+1/4'
'-x, -z, -y'
'x+1/4, -z+1/2, y+3/4'
'z+3/4, y+1/4, -x+1/2'
'z+1/4, -y+1/2, x+3/4'
'-z+1/2, y+3/4, x+1/4'
'-z, -y, -x'
'x, y+1/2, z+1/2'
'-x+3/4, -y+3/4, z+1'
'-x+1/4, y+1, -z+5/4'
'x+1/2, -y+5/4, -z+3/4'
'z, x+1/2, y+1/2'
'z+1/2, -x+5/4, -y+3/4'
'-z+3/4, -x+3/4, y+1'
'-z+1/4, x+1, -y+5/4'
'y, z+1/2, x+1/2'
'-y+1/4, z+1, -x+5/4'
'y+1/2, -z+5/4, -x+3/4'
'-y+3/4, -z+3/4, x+1'
'y+3/4, x+3/4, -z+1'
'-y, -x+1/2, -z+1/2'
'y+1/4, -x+1, z+5/4'
'-y+1/2, x+5/4, z+3/4'
'x+3/4, z+3/4, -y+1'
'-x+1/2, z+5/4, y+3/4'
'-x, -z+1/2, -y+1/2'
'x+1/4, -z+1, y+5/4'
'z+3/4, y+3/4, -x+1'
'z+1/4, -y+1, x+5/4'
'-z+1/2, y+5/4, x+3/4'
'-z, -y+1/2, -x+1/2'
'x+1/2, y, z+1/2'
'-x+5/4, -y+1/4, z+1'
'-x+3/4, y+1/2, -z+5/4'
'x+1, -y+3/4, -z+3/4'
'z+1/2, x, y+1/2'
'z+1, -x+3/4, -y+3/4'
'-z+5/4, -x+1/4, y+1'
'-z+3/4, x+1/2, -y+5/4'
'y+1/2, z, x+1/2'
'-y+3/4, z+1/2, -x+5/4'
'y+1, -z+3/4, -x+3/4'
'-y+5/4, -z+1/4, x+1'
'y+5/4, x+1/4, -z+1'
'-y+1/2, -x, -z+1/2'
'y+3/4, -x+1/2, z+5/4'
'-y+1, x+3/4, z+3/4'
'x+5/4, z+1/4, -y+1'
'-x+1, z+3/4, y+3/4'
'-x+1/2, -z, -y+1/2'
'x+3/4, -z+1/2, y+5/4'
'z+5/4, y+1/4, -x+1'
'z+3/4, -y+1/2, x+5/4'
'-z+1, y+3/4, x+3/4'
'-z+1/2, -y, -x+1/2'
'x+1/2, y+1/2, z'
'-x+5/4, -y+3/4, z+1/2'
'-x+3/4, y+1, -z+3/4'
'x+1, -y+5/4, -z+1/4'
'z+1/2, x+1/2, y'
'z+1, -x+5/4, -y+1/4'
'-z+5/4, -x+3/4, y+1/2'
'-z+3/4, x+1, -y+3/4'
'y+1/2, z+1/2, x'
'-y+3/4, z+1, -x+3/4'
'y+1, -z+5/4, -x+1/4'
'-y+5/4, -z+3/4, x+1/2'
'y+5/4, x+3/4, -z+1/2'
'-y+1/2, -x+1/2, -z'
'y+3/4, -x+1, z+3/4'
'-y+1, x+5/4, z+1/4'
'x+5/4, z+3/4, -y+1/2'
'-x+1, z+5/4, y+1/4'
'-x+1/2, -z+1/2, -y'
'x+3/4, -z+1, y+3/4'
'z+5/4, y+3/4, -x+1/2'
'z+3/4, -y+1, x+3/4'
'-z+1, y+5/4, x+1/4'
'-z+1/2, -y+1/2, -x'
'-x, -y, -z'
'x-3/4, y-1/4, -z-1/2'
'x-1/4, -y-1/2, z-3/4'
'-x-1/2, y-3/4, z-1/4'
'-z, -x, -y'
'-z-1/2, x-3/4, y-1/4'
'z-3/4, x-1/4, -y-1/2'
'z-1/4, -x-1/2, y-3/4'
'-y, -z, -x'
'y-1/4, -z-1/2, x-3/4'
'-y-1/2, z-3/4, x-1/4'
'y-3/4, z-1/4, -x-1/2'
'-y-3/4, -x-1/4, z-1/2'
'y, x, z'
'-y-1/4, x-1/2, -z-3/4'
'y-1/2, -x-3/4, -z-1/4'
'-x-3/4, -z-1/4, y-1/2'
'x-1/2, -z-3/4, -y-1/4'
'x, z, y'
'-x-1/4, z-1/2, -y-3/4'
'-z-3/4, -y-1/4, x-1/2'
'-z-1/4, y-1/2, -x-3/4'
'z-1/2, -y-3/4, -x-1/4'
'z, y, x'
'-x, -y+1/2, -z+1/2'
'x-3/4, y+1/4, -z'
'x-1/4, -y, z-1/4'
'-x-1/2, y-1/4, z+1/4'
'-z, -x+1/2, -y+1/2'
'-z-1/2, x-1/4, y+1/4'
'z-3/4, x+1/4, -y'
'z-1/4, -x, y-1/4'
'-y, -z+1/2, -x+1/2'
'y-1/4, -z, x-1/4'
'-y-1/2, z-1/4, x+1/4'
'y-3/4, z+1/4, -x'
'-y-3/4, -x+1/4, z'
'y, x+1/2, z+1/2'
'-y-1/4, x, -z-1/4'
'y-1/2, -x-1/4, -z+1/4'
'-x-3/4, -z+1/4, y'
'x-1/2, -z-1/4, -y+1/4'
'x, z+1/2, y+1/2'
'-x-1/4, z, -y-1/4'
'-z-3/4, -y+1/4, x'
'-z-1/4, y, -x-1/4'
'z-1/2, -y-1/4, -x+1/4'
'z, y+1/2, x+1/2'
'-x+1/2, -y, -z+1/2'
'x-1/4, y-1/4, -z'
'x+1/4, -y-1/2, z-1/4'
'-x, y-3/4, z+1/4'
'-z+1/2, -x, -y+1/2'
'-z, x-3/4, y+1/4'
'z-1/4, x-1/4, -y'
'z+1/4, -x-1/2, y-1/4'
'-y+1/2, -z, -x+1/2'
'y+1/4, -z-1/2, x-1/4'
'-y, z-3/4, x+1/4'
'y-1/4, z-1/4, -x'
'-y-1/4, -x-1/4, z'
'y+1/2, x, z+1/2'
'-y+1/4, x-1/2, -z-1/4'
'y, -x-3/4, -z+1/4'
'-x-1/4, -z-1/4, y'
'x, -z-3/4, -y+1/4'
'x+1/2, z, y+1/2'
'-x+1/4, z-1/2, -y-1/4'
'-z-1/4, -y-1/4, x'
'-z+1/4, y-1/2, -x-1/4'
'z, -y-3/4, -x+1/4'
'z+1/2, y, x+1/2'
'-x+1/2, -y+1/2, -z'
'x-1/4, y+1/4, -z-1/2'
'x+1/4, -y, z-3/4'
'-x, y-1/4, z-1/4'
'-z+1/2, -x+1/2, -y'
'-z, x-1/4, y-1/4'
'z-1/4, x+1/4, -y-1/2'
'z+1/4, -x, y-3/4'
'-y+1/2, -z+1/2, -x'
'y+1/4, -z, x-3/4'
'-y, z-1/4, x-1/4'
'y-1/4, z+1/4, -x-1/2'
'-y-1/4, -x+1/4, z-1/2'
'y+1/2, x+1/2, z'
'-y+1/4, x, -z-3/4'
'y, -x-1/4, -z-1/4'
'-x-1/4, -z+1/4, y-1/2'
'x, -z-1/4, -y-1/4'
'x+1/2, z+1/2, y'
'-x+1/4, z, -y-3/4'
'-z-1/4, -y+1/4, x-1/2'
'-z+1/4, y, -x-3/4'
'z, -y-1/4, -x-1/4'
'z+1/2, y+1/2, x'
loop_
_atom_site_label
_atom_site_type_symbol
_atom_site_fract_x
_atom_site_fract_y
_atom_site_fract_z
_atom_site_U_iso_or_equiv
_atom_site_adp_type
_atom_site_occupancy
_atom_site_site_symmetry_order
_atom_site_calc_flag
_atom_site_refinement_flags_posn
_atom_site_refinement_flags_adp
_atom_site_refinement_flags_occupancy
As1 As 0.26074(6) 0.26074(6) 0.26074(6) 0.0104(4) Uani 1 6 d S T P
O1 O 0.3750 0.3750 0.1867(5) 0.0108(9) Uani 1 4 d S T P
loop_
_atom_site_aniso_label
_atom_site_aniso_U_11
_atom_site_aniso_U_22
_atom_site_aniso_U_33
_atom_site_aniso_U_23
_atom_site_aniso_U_13
_atom_site_aniso_U_12
As1 0.0104(4) 0.0104(4) 0.0104(4) -0.00060(16) -0.00060(16) -0.00060(16)
O1 0.0111(13) 0.0111(13) 0.010(2) 0.000 0.000 -0.0011(17)
loop_
_atom_type_symbol
_atom_type_description
_atom_type_scat_dispersion_real
_atom_type_scat_dispersion_imag
_atom_type_scat_source
As As 0.3110 0.7990 'International Tables Vol C Tables 4.2.6.8 and 6.1.1.4'
O O 0.0020 0.0020 'International Tables Vol C Tables 4.2.6.8 and 6.1.1.4'
loop_
_geom_angle_atom_site_label_1
_geom_angle_atom_site_label_2
_geom_angle_atom_site_label_3
_geom_angle
_geom_angle_site_symmetry_1
_geom_angle_site_symmetry_3
O1 As1 O1 97.04(18) 5 9
O1 As1 O1 97.04(18) 9 .
O1 As1 O1 97.04(18) 5 .
As1 O1 As1 130.7(3) 26_554 .
loop_
_geom_bond_atom_site_label_1
_geom_bond_atom_site_label_2
_geom_bond_distance
_geom_bond_site_symmetry_2
As1 O1 1.794(2) 5
As1 O1 1.794(2) .
As1 O1 1.794(2) 9
O1 As1 1.794(2) 26_554
