#------------------------------------------------------------------------------
#$Date: 2015-09-04 08:12:49 +0300 (Fri, 04 Sep 2015) $
#$Revision: 153928 $
#$URL: svn://www.crystallography.net/cod/cif/4/51/35/4513587.cif $
#------------------------------------------------------------------------------
#
# This file is available in the Crystallography Open Database (COD),
# http://www.crystallography.net/
#
# All data on this site have been placed in the public domain by the
# contributors.
#
data_4513587
loop_
_publ_author_name
'Gu\'nka, Piotr A.'
'Dziubek, Kamil F.'
'G\/ladysiak, Andrzej'
'Dranka, Maciej'
'Piechota, Jacek'
'Hanfland, Michael'
'Katrusiak, Andrzej'
'Zachara, Janusz'
_publ_section_title
;
 Compressed Arsenolite As4O6and Its Helium Clathrate As4O6&#x00B7;2He
;
_journal_issue                   8
_journal_name_full               'Crystal Growth &amp; Design'
_journal_page_first              3740
_journal_paper_doi               10.1021/acs.cgd.5b00390
_journal_volume                  15
_journal_year                    2015
_chemical_formula_moiety         '2(As2 O3)'
_chemical_formula_sum            'As4 O6'
_chemical_formula_weight         395.68
_space_group_crystal_system      cubic
_space_group_IT_number           227
_space_group_name_Hall           '-F 4vw 2vw 3'
_space_group_name_H-M_alt        'F d -3 m'
_symmetry_space_group_name_Hall  '-F 4vw 2vw 3'
_symmetry_space_group_name_H-M   'F d -3 m :2'
_atom_sites_solution_primary     direct
_audit_creation_date             2015-01-22
_audit_creation_method
;
Olex2 1.2-beta
(compiled 2015.01.19 svn.r3143 for OlexSys, GUI svn.r4992)
;
_cell_angle_alpha                90
_cell_angle_beta                 90
_cell_angle_gamma                90
_cell_formula_units_Z            8
_cell_length_a                   9.8807(4)
_cell_length_b                   9.8807(4)
_cell_length_c                   9.8807(4)
_cell_measurement_reflns_used    321
_cell_measurement_temperature    293(2)
_cell_measurement_theta_max      19.6140
_cell_measurement_theta_min      2.0730
_cell_volume                     964.64(7)
_computing_cell_refinement
;
CrysAlisPro, Agilent Technologies,
Version 1.171.37.35 (release 13-08-2014 CrysAlis171 .NET)
(compiled Aug 13 2014,18:06:01)
;
_computing_data_collection
;
CrysAlisPro, Agilent Technologies,
Version 1.171.37.35 (release 13-08-2014 CrysAlis171 .NET)
(compiled Aug 13 2014,18:06:01)
;
_computing_data_reduction
;
CrysAlisPro, Agilent Technologies,
Version 1.171.37.35 (release 13-08-2014 CrysAlis171 .NET)
(compiled Aug 13 2014,18:06:01)
;
_computing_molecular_graphics    'Olex2 (Dolomanov et al., 2009)'
_computing_publication_material  'Olex2 (Dolomanov et al., 2009)'
_computing_structure_refinement  'ShelXL (Sheldrick, 2008)'
_computing_structure_solution    'ShelXT (Sheldrick, 2015)'
_diffrn_ambient_temperature      293(2)
_diffrn_detector                 'CCD plate'
_diffrn_measured_fraction_theta_full 0.820
_diffrn_measured_fraction_theta_max 0.676
_diffrn_measurement_details
;
  1 phi    148.00  212.00   0.5000    1.0000
omega____ theta____ kappa____ phi______ frames
   0.0000    0.0000    0.0000     -     128
;
_diffrn_measurement_device       'abstract diffractometer'
_diffrn_measurement_device_type
'MAR-CrysAlisPro-abstract goniometer: imported MAR images'
_diffrn_measurement_method       '\p scans'
_diffrn_orient_matrix_UB_11      -0.0005487000
_diffrn_orient_matrix_UB_12      -0.0341823000
_diffrn_orient_matrix_UB_13      -0.0243025000
_diffrn_orient_matrix_UB_21      -0.0291112000
_diffrn_orient_matrix_UB_22      -0.0171908000
_diffrn_orient_matrix_UB_23      0.0247645000
_diffrn_orient_matrix_UB_31      -0.0301817000
_diffrn_orient_matrix_UB_32      0.0171799000
_diffrn_orient_matrix_UB_33      -0.0234948000
_diffrn_radiation_monochromator  synchrotron
_diffrn_radiation_probe          x-ray
_diffrn_radiation_wavelength     0.41427
_diffrn_reflns_av_R_equivalents  0.0256
_diffrn_reflns_av_unetI/netI     0.0192
_diffrn_reflns_laue_measured_fraction_full 0.820
_diffrn_reflns_laue_measured_fraction_max 0.676
_diffrn_reflns_limit_h_max       16
_diffrn_reflns_limit_h_min       -16
_diffrn_reflns_limit_k_max       11
_diffrn_reflns_limit_k_min       -9
_diffrn_reflns_limit_l_max       14
_diffrn_reflns_limit_l_min       -13
_diffrn_reflns_number            445
_diffrn_reflns_point_group_measured_fraction_full 0.820
_diffrn_reflns_point_group_measured_fraction_max 0.676
_diffrn_reflns_theta_full        14.392
_diffrn_reflns_theta_max         19.915
_diffrn_reflns_theta_min         2.081
_diffrn_source                   synchrotron
_exptl_absorpt_coefficient_mu    6.296
_exptl_absorpt_correction_T_max  1.00000
_exptl_absorpt_correction_T_min  0.69949
_exptl_absorpt_correction_type   multi-scan
_exptl_absorpt_process_details
;
CrysAlisPro, Agilent Technologies,
Version 1.171.37.35 (release 13-08-2014 CrysAlis171 .NET)
(compiled Aug 13 2014,18:06:01)
Empirical absorption correction using spherical harmonics,
 implemented in SCALE3 ABSPACK scaling algorithm.
;
_exptl_crystal_density_diffrn    5.449
_exptl_crystal_description       block
_exptl_crystal_F_000             1440
_exptl_crystal_size_max          0.065
_exptl_crystal_size_mid          0.04
_exptl_crystal_size_min          0.02
_refine_diff_density_max         0.530
_refine_diff_density_min         -0.510
_refine_diff_density_rms         0.141
_refine_ls_extinction_method     none
_refine_ls_goodness_of_fit_ref   1.292
_refine_ls_hydrogen_treatment    undef
_refine_ls_matrix_type           full
_refine_ls_number_parameters     8
_refine_ls_number_reflns         92
_refine_ls_number_restraints     0
_refine_ls_restrained_S_all      1.292
_refine_ls_R_factor_all          0.0330
_refine_ls_R_factor_gt           0.0296
_refine_ls_shift/su_max          0.000
_refine_ls_shift/su_mean         0.000
_refine_ls_structure_factor_coef Fsqd
_refine_ls_weighting_details
'w=1/[\s^2^(Fo^2^)+(0.0220P)^2^+18.2880P] where P=(Fo^2^+2Fc^2^)/3'
_refine_ls_weighting_scheme      calc
_refine_ls_wR_factor_gt          0.0661
_refine_ls_wR_factor_ref         0.0716
_reflns_Friedel_coverage         0.000
_reflns_number_gt                87
_reflns_number_total             92
_reflns_threshold_expression     'I > 2\s(I)'
_cod_data_source_file            cg5b00390_si_002.cif
_cod_data_source_block           marseno_027
_cod_original_cell_volume        964.63(11)
_cod_database_code               4513587
_chemical_oxdiff_formula         'As4 O6'
_shelx_space_group_comment
;
The symmetry employed for this shelxl refinement is uniquely defined
by the following loop, which should always be used as a source of
symmetry information in preference to the above space-group names.
They are only intended as comments.
;
_olex2_refinement_description
;
;
_shelx_res_file
;
    marseno_027.res created by SHELXL-2014/7

TITL marseno_027_a.res in Fd-3m
REM Old TITL marseno_027 in Fd-3m #227
CELL 0.41427 9.880674 9.880674 9.880674 90 90 90
ZERR 8 0.000373 0.000373 0.000373 0 0 0
LATT 4
SYMM 0.75-X,0.25-Y,0.5+Z
SYMM 0.25-X,0.5+Y,0.75-Z
SYMM 0.5+X,0.75-Y,0.25-Z
SYMM +Z,+X,+Y
SYMM 0.5+Z,0.75-X,0.25-Y
SYMM 0.75-Z,0.25-X,0.5+Y
SYMM 0.25-Z,0.5+X,0.75-Y
SYMM +Y,+Z,+X
SYMM 0.25-Y,0.5+Z,0.75-X
SYMM 0.5+Y,0.75-Z,0.25-X
SYMM 0.75-Y,0.25-Z,0.5+X
SYMM 0.75+Y,0.25+X,0.5-Z
SYMM -Y,-X,-Z
SYMM 0.25+Y,0.5-X,0.75+Z
SYMM 0.5-Y,0.75+X,0.25+Z
SYMM 0.75+X,0.25+Z,0.5-Y
SYMM 0.5-X,0.75+Z,0.25+Y
SYMM -X,-Z,-Y
SYMM 0.25+X,0.5-Z,0.75+Y
SYMM 0.75+Z,0.25+Y,0.5-X
SYMM 0.25+Z,0.5-Y,0.75+X
SYMM 0.5-Z,0.75+Y,0.25+X
SYMM -Z,-Y,-X
SFAC O As
DISP As 0.311 0.799 1882.762
DISP O 0.002 0.002 10.067
UNIT 48 32

L.S. 10
PLAN  20
BOND $H
LIST 6
fmap 2
acta
REM <olex2.extras>
REM <HklSrc "%.\\marseno_027.hkl">
REM </olex2.extras>

WGHT    0.022000   18.288000
FVAR       1.59128
AS1   2    0.257883    0.257883    0.257883    10.16667    0.01015    0.01015 =
         0.01015   -0.00068   -0.00068   -0.00068
O1    1    0.375000    0.375000    0.183668    10.25000    0.01171    0.01171 =
         0.01017    0.00000    0.00000   -0.00216
HKLF 4

REM  marseno_027_a.res in Fd-3m
REM R1 =  0.0296 for      87 Fo > 4sig(Fo)  and  0.0330 for all      92 data
REM      8 parameters refined using      0 restraints

END

WGHT      0.0222     18.2955

REM Highest difference peak  0.530,  deepest hole -0.510,  1-sigma level  0.141
Q1    1   0.1608  0.2674  0.2674  10.50000  0.05    0.53
Q2    1   0.1907  0.2901  0.2486  11.00000  0.05    0.51
Q3    1   0.3929  0.4431  0.2152  11.00000  0.05    0.50
Q4    1   0.2712  0.2712  0.3325  10.50000  0.05    0.40
Q5    1   0.2036  0.2036  0.2036  10.16667  0.05    0.36
Q6    1   0.3091  0.3091  0.2712  10.50000  0.05    0.34
Q7    1   0.3750  0.3750  0.2378  10.25000  0.05    0.33
Q8    1   0.4461  0.3716  0.2039  11.00000  0.05    0.33
Q9    1   0.2476  0.4152  0.2090  11.00000  0.05    0.32
Q10   1   0.3110  0.3581  0.1824  11.00000  0.05    0.31
Q11   1   0.2235  0.2235  0.1031  10.50000  0.05    0.31
Q12   1   0.4037  0.3463  0.2743  10.50000  0.05    0.27
Q13   1   0.2365  0.2365  0.0135  10.16667  0.05    0.26
Q14   1   0.2308  0.1625  0.1625  10.50000  0.05    0.26
Q15   1   0.3091  0.4841  0.2360  11.00000  0.05    0.23
Q16   1   0.1810  0.1810  0.0690  10.16667  0.05    0.22
Q17   1   0.4311  0.3524  0.1019  11.00000  0.05    0.22
Q18   1   0.1845  0.1250  0.1250  10.25000  0.05    0.21
Q19   1   0.2952  0.4548  0.1688  10.50000  0.05    0.20
Q20   1   0.4149  0.4437  0.0212  11.00000  0.05    0.20
;
_shelx_res_checksum              43412
_shelx_hkl_file
;
   1   1  -1 74116.7 869.738   1
  -1  -1   1 73755.3 864.289   1
   0  -2   2 4570.88 220.448   1
   0   2  -2 4838.09 247.451   1
   2   0  -2 3957.95 266.161   1
  -2   0   2 4520.16 296.574   1
   3  -1   1 142.879 31.4287   1
   1  -1   3 247.012 52.9054   1
   3   1  -1 309.211 82.2759   1
  -1  -1   3 230.688 66.4534   1
  -3   1  -1 155.295 31.5529   1
   1   1  -3 279.235 71.7694   1
  -3  -1   1 112.295 45.3492   1
   3   3  -1 87844.5 1515.09   1
   3   1  -3 86686.1 1539.43   1
   1   3  -3 88688.4 1437.78   1
  -3  -3   1 83691.3 1480.02   1
  -1  -3   3 85016.6 1344.21   1
   1  -3   3 85524.2 1091.17   1
  -1   3  -3 85195.4 1109.90   1
  -3  -1   3 86080.9 1508.19   1
   3   3  -3 1750.18 234.876   1
  -3   3  -3 1472.80 96.8272   1
   0   2  -4 5.66686 19.1460   1
   0  -2   4 9.53418 25.6924   1
  -4   0   2 30.8755 51.0112   1
  -4  -2   0 20.3518 29.0705   1
   4   2   0 29.5428 27.4030   1
  -2  -2   4 33141.0 991.119   1
   2   2  -4 33256.7 967.840   1
  -4   2  -2 31556.1 373.382   1
  -4  -2   2 33074.1 979.508   1
   4   2  -2 31833.9 980.497   1
   2  -2   4 33807.8 622.051   1
  -2   4  -4 1790.95 167.909   1
   4  -2   4 1332.16 59.2785   1
  -4  -2   4 1602.26 255.472   1
   4   2  -4 1821.73 257.599   1
   4   4  -2 2034.74 280.519   1
   2   4  -4 1648.33 230.834   1
  -2  -4   4 1736.52 225.863   1
  -5  -1   1 3723.72 319.908   1
   5   1  -1 3516.17 314.896   1
  -1  -1   5 4256.11 383.580   1
   5   1   1 3609.10 278.428   1
   5  -1  -1 3720.17 302.197   1
   5  -1   1 3964.48 245.033   1
  -5   1  -1 3877.74 233.456   1
  -5   1   1 4170.30 328.933   1
  -3  -1   5 12862.4 742.324   1
  -1   3  -5 11926.0 503.228   1
   3   1  -5 12087.6 648.938   1
   5   3  -1 11023.8 636.957   1
  -1  -3   5 11577.2 592.230   1
  -5  -1   3 10847.6 668.480   1
   5  -1   3 11511.8 321.201   1
   1  -3   5 11342.2 495.705   1
   1   3  -5 11770.1 585.478   1
  -5  -3   1 11825.8 633.100   1
   5   1  -3 11278.5 636.133   1
  -3  -3   5 987.870 204.555   1
   3   3  -5 415.608 122.853   1
   3  -3   5 791.195 94.5538   1
  -5  -3   3 659.481 147.339   1
   5   3  -3 472.054 140.618   1
   3   5  -3 845.462 185.159   1
  -3  -5   3 563.640 155.692   1
  -1  -5   5 141073. 2138.35   1
   5   1  -5 143563. 2448.37   1
  -5  -1   5 138202. 2677.56   1
   1  -5   5 142092. 1931.71   1
   1   5  -5 143187. 2281.66   1
  -1   5  -5 141692. 1964.22   1
  -3  -5   5 9506.33 622.784   1
  -5  -5   3 8757.61 640.392   1
   3   5  -5 10413.2 699.202   1
   5   3  -5 9231.33 661.539   1
  -3   5  -5 9953.54 420.703   1
   5   5  -3 11055.8 777.742   1
  -5  -3   5 10056.1 729.813   1
  -5  -5   5 28758.2 1187.80   1
   5   5  -5 29594.9 1312.13   1
   6   0   2 2482.87 220.560   1
  -6   2   0 2470.24 234.140   1
  -6   0   2 2233.49 285.433   1
   6   0  -2 2007.12 269.371   1
  -6  -2   0 2426.56 272.017   1
   6   2   0 2366.62 286.790   1
   0  -2   6 2279.58 271.768   1
   6   0  -4 16.8639 28.8082   1
  -6   0   4 31.2190 47.0334   1
   0  -4   6 6.70851 9.35706   1
  -6  -4   2 207.411 97.7901   1
   2  -4   6 434.934 91.7855   1
   6   4  -2 526.909 157.160   1
   6  -2   4 247.097 29.4413   1
  -4  -2   6 344.258 137.142   1
   2   4  -6 376.055 111.723   1
  -2  -4   6 453.545 106.941   1
   2   6  -4 290.223 122.855   1
  -2   4  -6 653.165 118.158   1
   4   2  -6 305.476 93.7433   1
  -6  -2   4 202.527 112.338   1
   6   2  -4 408.211 135.389   1
   6   4  -4 1189.60 236.257   1
   4  -4   6 858.121 99.3827   1
  -4  -4   6 423.137 167.278   1
  -4  -6   4 942.452 215.291   1
   4   6  -4 1197.36 257.159   1
  -6  -4   4 844.342 183.287   1
   4   4  -6 877.049 193.287   1
   0  -6   6 37776.8 1169.03   1
   0   6  -6 39701.9 1248.10   1
  -4   6  -6 60.9200 42.9171   1
  -4  -6   6 27.7090 42.0441   1
   4   6  -6 123.985 92.5825   1
  -6  -6   4 123.079 97.4135   1
   6   6  -4 256.129 146.891   1
  -6  -4   6 29.2921 47.3475   1
   7   1  -1 12361.1 663.460   1
   7  -1  -1 11879.9 608.421   1
  -7  -1   1 12138.2 649.431   1
   7   1   1 12911.4 642.717   1
  -7   1   1 11970.4 644.570   1
  -7   1  -1 12029.7 510.996   1
  -7  -1  -1 12904.9 620.227   1
   7  -1   1 12114.9 549.097   1
   1  -3   7 21963.6 823.865   1
   7  -1   3 20982.7 582.961   1
   7   1  -3 22084.6 1012.69   1
  -7   1   3 23853.6 1092.53   1
  -1  -3   7 21829.5 947.512   1
  -7  -3   1 21621.8 950.036   1
  -7  -1   3 22383.3 1048.27   1
   1   3  -7 21930.8 894.357   1
   7   3  -1 22029.5 1031.38   1
  -7   3  -1 21974.2 714.324   1
  -7  -3   3 138435. 2582.52   1
   3  -3   7 138382. 1734.66   1
   7   3  -3 135315. 2596.73   1
  -3  -3   7 139389. 2765.91   1
   3   3  -7 138211. 2554.32   1
  -1   7  -5 2751.04 323.925   1
  -1  -5   7 2898.62 341.758   1
  -1   5  -7 3028.13 312.460   1
  -7  -1   5 2544.02 392.810   1
   1   5  -7 3007.16 350.651   1
   1   7  -5 2475.81 366.491   1
   1  -5   7 2935.38 302.015   1
   7   1  -5 2699.18 376.330   1
   5   3  -7 11152.9 799.558   1
  -3  -5   7 11769.3 791.865   1
   3   5  -7 10724.4 734.551   1
  -3   5  -7 11696.6 518.383   1
   7   3  -5 10531.4 786.521   1
  -7  -5   3 11658.7 803.183   1
   5  -3   7 10123.7 365.343   1
  -5  -3   7 11237.3 861.273   1
   3  -5   7 11021.1 486.427   1
   7   5  -3 12328.7 920.814   1
   3   7  -5 11901.4 833.758   1
  -7  -3   5 11889.2 895.594   1
  -7   5  -3 9104.67 349.456   1
  -5  -5   7 7156.00 671.708   1
  -7  -5   5 6820.29 647.398   1
   7   5  -5 6868.31 671.642   1
   5   7  -5 7674.79 756.319   1
   5   5  -7 6997.98 669.878   1
  -1  -7   7 53884.1 1608.53   1
  -1   7  -7 54976.8 1472.99   1
  -7  -1   7 51352.0 2039.96   1
   1   7  -7 55539.5 1671.36   1
  -3  -7   7 42639.2 1537.76   1
  -3   7  -7 42444.2 1137.45   1
   3   7  -7 43754.1 1632.39   1
  -7  -3   7 43888.6 1909.18   1
   7   3  -7 42687.8 1729.68   1
  -7  -5   7 12970.2 997.559   1
   7   5  -7 12832.1 995.754   1
   5   7  -7 14493.3 1027.84   1
  -5   7  -7 13390.4 522.802   1
  -5  -7   7 13269.5 945.148   1
  -7  -7   5 11979.5 990.865   1
   7   7  -5 14303.6 1126.99   1
  -7  -7   7 87447.2 2656.28   1
   8   0   2 102.142 57.3868   1
   8   2   0 3.61862 52.7856   1
  -8   0   2 41.5434 24.6375   1
  -8  -2   2 19587.1 954.422   1
  -8   2   2 18100.8 935.818   1
  -8   2  -2 19339.2 603.264   1
  -2  -2   8 19884.0 1094.59   1
   8  -2   2 20443.2 667.023   1
   8   2  -2 18811.6 934.989   1
  -8  -4   2 2965.82 398.646   1
  -8  -2   4 2841.66 440.367   1
   8  -2   4 2830.93 194.908   1
  -4  -2   8 2839.17 437.496   1
   4   2  -8 3013.22 400.272   1
  -8   4  -2 2719.81 232.371   1
   2   4  -8 3365.23 410.985   1
   2  -4   8 2780.97 292.708   1
  -2  -4   8 2820.76 390.621   1
   8   4  -2 3159.87 439.686   1
   8   2  -4 2811.71 401.582   1
  -8   0   6 65.7022 88.7318   1
  -2   6  -8 4636.20 415.936   1
  -6  -2   8 4050.29 583.619   1
   8   2  -6 4656.60 565.074   1
   2   6  -8 4348.74 486.368   1
   2  -6   8 4590.96 377.809   1
   8  -2   6 2720.84 131.726   1
  -8  -2   6 3755.42 527.276   1
   2   8  -6 4581.04 550.237   1
  -2  -6   8 4584.83 506.580   1
   6   2  -8 4148.02 513.476   1
   8   4  -6 2268.09 387.735   1
  -6  -4   8 2460.53 460.502   1
   4   6  -8 1305.78 289.058   1
  -4   8  -6 1215.60 186.061   1
  -8  -4   6 1807.22 377.329   1
  -8  -6   4 2213.06 393.537   1
   8   6  -4 1634.36 346.270   1
  -8   6  -4 617.378 53.3952   1
  -4  -8   6 1392.89 310.676   1
   6   4  -8 1703.35 352.516   1
   4   8  -6 1772.30 348.700   1
  -4  -6   8 2260.32 378.534   1
   6   6  -8 2640.77 453.048   1
   6   8  -6 3593.14 572.038   1
  -8  -6   6 1510.35 335.621   1
  -6   8  -6 1872.88 193.193   1
  -6  -8   6 1443.02 343.484   1
  -6  -6   8 2588.91 465.086   1
   0   8  -8 206820. 3278.75   1
  -2   8  -8 7308.68 566.628   1
   2   8  -8 6748.81 649.042   1
  -2  -8   8 5652.23 610.674   1
  -8  -2   8 6579.76 862.231   1
  -4   8  -8 260975. 2926.53   1
   4   8  -8 270997. 4531.11   1
  -4  -8   8 261158. 4342.11   1
  -8  -4   8 259074. 5156.76   1
  -9   1  -1 51407.2 1229.40   1
   9  -1   1 52241.4 1327.27   1
   9  -1  -1 53039.5 1456.27   1
   9   1  -1 51220.8 1557.16   1
  -9  -1   1 50401.7 1493.63   1
   9   1   1 52829.9 1484.26   1
  -9  -1  -1 54293.9 1457.22   1
  -9   1   1 54267.7 1565.52   1
   9  -1  -3 23269.0 1084.19   1
   9  -1   3 23001.3 768.122   1
   9   1  -3 22619.0 1143.20   1
  -9   3   1 22066.8 1035.48   1
   1  -3   9 21284.7 1011.10   1
  -1  -3   9 20896.2 1082.62   1
  -9  -3   1 23209.1 1089.28   1
  -9   1   3 22529.1 1152.61   1
   9   3  -1 23404.9 1176.08   1
  -9   3  -1 21996.0 820.938   1
  -9  -1   3 22552.2 1150.90   1
   9   1   3 24004.6 978.565   1
   9   3   1 25124.7 1193.30   1
   3  -3   9 46.0668 45.4567   1
   9   3  -3 136.629 63.5633   1
   3   3  -9 217.593 100.781   1
  -9  -3   3 60.9815 72.2313   1
   9   1  -5 41970.5 1654.98   1
  -1   5  -9 42897.4 1323.27   1
   9  -1   5 38400.8 899.321   1
  -9  -1   5 39432.1 1726.59   1
   1   5  -9 40735.7 1441.37   1
  -1  -5   9 41250.4 1500.04   1
   1  -5   9 42839.9 1392.80   1
   3  -5   9 26280.0 892.472   1
   3   5  -9 26578.2 1274.56   1
   9   3  -5 23982.6 1354.60   1
   5  -3   9 25143.2 799.593   1
   5   3  -9 23784.8 1264.13   1
  -9  -5   3 24997.7 1308.31   1
  -5  -3   9 24873.6 1465.35   1
   9   5  -3 26096.2 1488.97   1
  -9   5  -3 22352.8 595.121   1
  -3  -5   9 25203.8 1306.62   1
  -9  -3   5 26345.5 1426.44   1
   5   5  -9 92060.1 2612.02   1
  -9  -5   5 92513.1 2611.70   1
   5  -5   9 95939.9 1361.26   1
   9   5  -5 99551.5 2908.49   1
  -5  -5   9 100433. 2943.96   1
  -9  -1   7 646.257 274.556   1
  -1  -7   9 363.157 148.607   1
   9   1  -7 811.949 232.806   1
   1   9  -7 486.281 202.159   1
   1  -7   9 414.635 142.646   1
  -1   9  -7 50.8086 67.1536   1
  -1   7  -9 698.996 181.348   1
   1   7  -9 608.545 187.928   1
   3   7  -9 240.355 130.811   1
  -3  -7   9 1043.90 255.162   1
   7  -3   9 885.640 112.359   1
  -7  -3   9 865.967 301.480   1
  -9  -3   7 885.211 279.017   1
   3   9  -7 1233.42 297.793   1
  -3   9  -7 214.619 99.8238   1
  -3   7  -9 1630.25 251.597   1
  -5  -7   9 4540.97 579.265   1
  -5   9  -7 3350.19 329.416   1
  -1   9  -9 45774.6 1600.79   1
   1   9  -9 45473.5 1758.13   1
  -3   9  -9 32661.0 1210.94   1
  10   0  -2 6932.64 620.518   1
  10   0   2 6663.37 501.009   1
  10   2   0 6528.48 594.339   1
 -10  -2   0 6523.97 557.991   1
 -10   2   0 6580.96 522.555   1
 -10   0   2 7027.92 641.244   1
 -10   4   0 160.149 81.8891   1
   0  -4  10 86.9113 74.1711   1
  10   0  -4 103.614 98.9176   1
  10   4  -2 139.977 85.4068   1
   2  -4  10 158.189 102.576   1
 -10  -2   4 260.850 106.621   1
  -2  -4  10 148.123 127.358   1
 -10  -4   2 99.7177 81.9277   1
  10  -2   4 123.290 58.4490   1
 -10   4  -2 82.2074 56.1361   1
  10   4  -4 267.009 156.144   1
 -10  -4   4 143.112 114.319   1
   4  -4  10 162.882 70.2531   1
  -4  -4  10 321.015 156.935   1
   4   4 -10 96.9040 131.669   1
 -10   0   6 91.5002 130.257   1
   0  -6  10 86.4368 85.9140   1
   0   6 -10 66.8709 101.908   1
  -2  -6  10 217864. 3904.40   1
   2  -6  10 229494. 3073.39   1
   2   6 -10 219465. 3710.45   1
 -10  -2   6 228131. 4670.57   1
  -4  -6  10 15595.3 1144.38   1
 -10  -4   6 17110.5 1254.16   1
   4   6 -10 14203.0 1043.46   1
   4  -6  10 14764.5 671.066   1
 -10  -6   4 14793.2 1127.10   1
  -6  -4  10 14087.9 1236.08   1
   6  -4  10 13184.8 537.980   1
   0  10  -8 39.8760 107.889   1
   0   8 -10 134.501 100.117   1
   2  -8  10 271.181 129.350   1
   2  10  -8 288.639 173.635   1
  -2  -8  10 79.5257 61.9709   1
  -4  10  -8 67.3473 77.4441   1
   0  10 -10 27960.6 1410.84   1
  -2  10 -10 94636.8 2340.41   1
  11  -1  -1 32387.7 1288.73   1
  11  -1   1 36130.9 1249.29   1
 -11  -1   1 31594.8 1301.34   1
  11   1  -1 32024.9 1388.60   1
 -11   1  -1 33104.7 1132.99   1
  11   1   1 30528.0 1260.86   1
 -11   1   1 32947.1 1362.56   1
  11   1  -3 30816.5 1458.74   1
  11  -1   3 30217.7 1055.75   1
  11   3  -1 32173.5 1492.92   1
 -11  -3   1 28491.7 1350.77   1
 -11   3   1 30164.1 1328.99   1
  11   1   3 31643.4 1257.17   1
 -11   1   3 29014.6 1446.28   1
  11   3   1 31854.5 1478.47   1
 -11   3  -1 31858.2 1117.28   1
 -11  -1   3 31067.1 1493.22   1
 -11  -3   3 37802.0 1630.21   1
  11   3  -3 40820.6 1809.88   1
 -11  -1   5 33.6192 73.6840   1
  11  -1   5 110.855 62.0895   1
 -11   5  -1 36.0392 45.6979   1
 -11   1   5 231.097 192.783   1
  11   1  -5 254.204 164.758   1
   1  -5  11 392.223 148.336   1
 -11  -3   5 15327.1 1180.32   1
   3   5 -11 14734.6 1012.53   1
 -11  -5   3 15969.8 1150.56   1
  -3  -5  11 16346.0 1198.47   1
   3  -5  11 15449.5 819.819   1
   5  -5  11 7174.57 465.746   1
  -1   7 -11 40884.3 1484.65   1
   1   7 -11 39504.3 1594.57   1
  -1  -7  11 40580.1 1628.76   1
   1  -7  11 38245.7 1396.75   1
  -3  -7  11 55454.3 2119.24   1
   3  -7  11 55428.2 1547.82   1
  -1  -9  11 499.038 209.222   1
  -1   9 -11 430.123 186.076   1
   1   9 -11 196.576 138.087   1
  -3   9 -11 1924.14 295.979   1
  -1  11 -11 15117.6 1082.16   1
  12   0   0 167657. 3098.40   1
 -12   0   0 169515. 2941.79   1
  12   2   0 46.4023 26.9209   1
 -12   2   0 63.8511 77.4787   1
 -12   0   2 96.7097 51.3076   1
  12   0   2 59.1954 59.1883   1
 -12  -2   2 4301.25 541.477   1
  12   2   2 3621.89 472.053   1
 -12   2  -2 4821.91 421.595   1
 -12   2   2 3649.72 526.274   1
  12   2  -2 3997.36 549.264   1
  12   0  -4 191363. 3829.96   1
  12   0   4 197436. 2871.77   1
  12   4   0 198413. 4127.89   1
 -12   4   0 197985. 3208.76   1
 -12   0   4 206230. 4249.48   1
 -12   4  -2 2732.18 297.063   1
 -12  -4   2 2696.30 454.321   1
 -12  -2   4 2335.03 438.365   1
   0  -6  12 20.1419 622.690   1
   2   6 -12 34.3227 73.2909   1
  -2  -6  12 32.5770 107.100   1
   4  -6  12 1290.07 218.181   1
   0   8 -12 100352. 2556.46   1
   0  -8  12 98411.3 2551.62   1
  -2  -8  12 6776.95 739.728   1
   2  -8  12 6113.62 605.074   1
  -2  10 -12 339.930 166.112   1
  13  -1  -1 33719.0 1458.99   1
 -13   1   1 29582.5 1364.95   1
  13  -1   1 32955.0 1299.76   1
  13   1  -1 32225.0 1562.67   1
  13   1   1 31643.4 1431.29   1
 -13  -1   1 31667.2 1437.02   1
 -13   1  -1 32484.6 1264.74   1
 -13  -1   3 6306.48 725.068   1
  13  -1   3 7174.64 581.348   1
 -13   3  -1 7243.90 560.437   1
  13   3  -1 8489.05 878.045   1
  13   1   3 8069.92 671.601   1
  13   3   1 8151.20 811.067   1
 -13  -3   1 7434.25 764.582   1
 -13   3   1 7319.30 681.989   1
 -13   1   3 8453.89 846.763   1
  13  -1   5 36630.3 1168.88   1
  -1  -5  13 38422.6 1868.69   1
   1  -5  13 37254.7 1673.08   1
 -13   5  -1 37240.0 1332.84   1
   3  -5  13 24258.3 1210.60   1
  -1  -7  13 7777.24 793.488   1
   1  -7  13 7084.25 673.256   1
   3  -7  13 20.3911 44.9701   1
  -1   9 -13 31723.7 1454.29   1
  14   0   0 180.284 113.616   1
 -14   0   0 154.596 117.146   1
 -14   0   2 511.133 232.019   1
 -14   2   0 372.904 146.856   1
  14   0   2 524.374 157.007   1
 -14  -2   2 111165. 3055.45   1
  14   2   2 100851. 2741.53   1
 -14   2   2 108480. 2983.43   1
 -14   4   0 63.0983 65.5501   1
  14   0   4 6.33711 14.7317   1
   0  -6  14 10411.3 991.957   1
   2  -8  14 4015.45 497.771   1
  15  -1   1 8800.35 760.232   1
  15   1   1 8132.28 825.839   1
 -15   1   1 7329.92 725.943   1
 -15  -1   1 8956.24 823.749   1
 -15   1  -1 8073.46 695.586   1
 -15   3   1 19227.1 1167.18   1
  15   1   3 20576.4 1197.53   1
 -16   0   0 90547.9 2610.93   1
  16   0   2 225.356 58.9364   1
 -16   2   2 270.978 169.598   1
   0   0   0    0.00    0.00   0
TITL marseno_027 in Fd-3m
REM Fd-3m (#227 in standard setting)
CELL 0.41427   9.880674   9.880674   9.880674  90.0000  90.0000  90.0000
ZERR    8.00   0.000373   0.000373   0.000373   0.0000   0.0000   0.0000
LATT  4
SYMM -x+3/4,-y+1/4, z+1/2
SYMM -x+1/4, y+1/2,-z+3/4
SYMM  x+1/2,-y+3/4,-z+1/4
SYMM  z, x, y
SYMM  z+1/2,-x+3/4,-y+1/4
SYMM -z+3/4,-x+1/4, y+1/2
SYMM -z+1/4, x+1/2,-y+3/4
SYMM  y, z, x
SYMM -y+1/4, z+1/2,-x+3/4
SYMM  y+1/2,-z+3/4,-x+1/4
SYMM -y+3/4,-z+1/4, x+1/2
SYMM  y+3/4, x+1/4,-z+1/2
SYMM -y,-x,-z
SYMM  y+1/4,-x+1/2, z+3/4
SYMM -y+1/2, x+3/4, z+1/4
SYMM  x+3/4, z+1/4,-y+1/2
SYMM -x+1/2, z+3/4, y+1/4
SYMM -x,-z,-y
SYMM  x+1/4,-z+1/2, y+3/4
SYMM  z+3/4, y+1/4,-x+1/2
SYMM  z+1/4,-y+1/2, x+3/4
SYMM -z+1/2, y+3/4, x+1/4
SYMM -z,-y,-x
SFAC O As
UNIT 48.00 32.00
TREF
HKLF 4
END
;
_shelx_hkl_checksum              57793
_shelx_shelxl_version_number     2014/7
loop_
_space_group_symop_operation_xyz
'x, y, z'
'-x+3/4, -y+1/4, z+1/2'
'-x+1/4, y+1/2, -z+3/4'
'x+1/2, -y+3/4, -z+1/4'
'z, x, y'
'z+1/2, -x+3/4, -y+1/4'
'-z+3/4, -x+1/4, y+1/2'
'-z+1/4, x+1/2, -y+3/4'
'y, z, x'
'-y+1/4, z+1/2, -x+3/4'
'y+1/2, -z+3/4, -x+1/4'
'-y+3/4, -z+1/4, x+1/2'
'y+3/4, x+1/4, -z+1/2'
'-y, -x, -z'
'y+1/4, -x+1/2, z+3/4'
'-y+1/2, x+3/4, z+1/4'
'x+3/4, z+1/4, -y+1/2'
'-x+1/2, z+3/4, y+1/4'
'-x, -z, -y'
'x+1/4, -z+1/2, y+3/4'
'z+3/4, y+1/4, -x+1/2'
'z+1/4, -y+1/2, x+3/4'
'-z+1/2, y+3/4, x+1/4'
'-z, -y, -x'
'x, y+1/2, z+1/2'
'-x+3/4, -y+3/4, z+1'
'-x+1/4, y+1, -z+5/4'
'x+1/2, -y+5/4, -z+3/4'
'z, x+1/2, y+1/2'
'z+1/2, -x+5/4, -y+3/4'
'-z+3/4, -x+3/4, y+1'
'-z+1/4, x+1, -y+5/4'
'y, z+1/2, x+1/2'
'-y+1/4, z+1, -x+5/4'
'y+1/2, -z+5/4, -x+3/4'
'-y+3/4, -z+3/4, x+1'
'y+3/4, x+3/4, -z+1'
'-y, -x+1/2, -z+1/2'
'y+1/4, -x+1, z+5/4'
'-y+1/2, x+5/4, z+3/4'
'x+3/4, z+3/4, -y+1'
'-x+1/2, z+5/4, y+3/4'
'-x, -z+1/2, -y+1/2'
'x+1/4, -z+1, y+5/4'
'z+3/4, y+3/4, -x+1'
'z+1/4, -y+1, x+5/4'
'-z+1/2, y+5/4, x+3/4'
'-z, -y+1/2, -x+1/2'
'x+1/2, y, z+1/2'
'-x+5/4, -y+1/4, z+1'
'-x+3/4, y+1/2, -z+5/4'
'x+1, -y+3/4, -z+3/4'
'z+1/2, x, y+1/2'
'z+1, -x+3/4, -y+3/4'
'-z+5/4, -x+1/4, y+1'
'-z+3/4, x+1/2, -y+5/4'
'y+1/2, z, x+1/2'
'-y+3/4, z+1/2, -x+5/4'
'y+1, -z+3/4, -x+3/4'
'-y+5/4, -z+1/4, x+1'
'y+5/4, x+1/4, -z+1'
'-y+1/2, -x, -z+1/2'
'y+3/4, -x+1/2, z+5/4'
'-y+1, x+3/4, z+3/4'
'x+5/4, z+1/4, -y+1'
'-x+1, z+3/4, y+3/4'
'-x+1/2, -z, -y+1/2'
'x+3/4, -z+1/2, y+5/4'
'z+5/4, y+1/4, -x+1'
'z+3/4, -y+1/2, x+5/4'
'-z+1, y+3/4, x+3/4'
'-z+1/2, -y, -x+1/2'
'x+1/2, y+1/2, z'
'-x+5/4, -y+3/4, z+1/2'
'-x+3/4, y+1, -z+3/4'
'x+1, -y+5/4, -z+1/4'
'z+1/2, x+1/2, y'
'z+1, -x+5/4, -y+1/4'
'-z+5/4, -x+3/4, y+1/2'
'-z+3/4, x+1, -y+3/4'
'y+1/2, z+1/2, x'
'-y+3/4, z+1, -x+3/4'
'y+1, -z+5/4, -x+1/4'
'-y+5/4, -z+3/4, x+1/2'
'y+5/4, x+3/4, -z+1/2'
'-y+1/2, -x+1/2, -z'
'y+3/4, -x+1, z+3/4'
'-y+1, x+5/4, z+1/4'
'x+5/4, z+3/4, -y+1/2'
'-x+1, z+5/4, y+1/4'
'-x+1/2, -z+1/2, -y'
'x+3/4, -z+1, y+3/4'
'z+5/4, y+3/4, -x+1/2'
'z+3/4, -y+1, x+3/4'
'-z+1, y+5/4, x+1/4'
'-z+1/2, -y+1/2, -x'
'-x, -y, -z'
'x-3/4, y-1/4, -z-1/2'
'x-1/4, -y-1/2, z-3/4'
'-x-1/2, y-3/4, z-1/4'
'-z, -x, -y'
'-z-1/2, x-3/4, y-1/4'
'z-3/4, x-1/4, -y-1/2'
'z-1/4, -x-1/2, y-3/4'
'-y, -z, -x'
'y-1/4, -z-1/2, x-3/4'
'-y-1/2, z-3/4, x-1/4'
'y-3/4, z-1/4, -x-1/2'
'-y-3/4, -x-1/4, z-1/2'
'y, x, z'
'-y-1/4, x-1/2, -z-3/4'
'y-1/2, -x-3/4, -z-1/4'
'-x-3/4, -z-1/4, y-1/2'
'x-1/2, -z-3/4, -y-1/4'
'x, z, y'
'-x-1/4, z-1/2, -y-3/4'
'-z-3/4, -y-1/4, x-1/2'
'-z-1/4, y-1/2, -x-3/4'
'z-1/2, -y-3/4, -x-1/4'
'z, y, x'
'-x, -y+1/2, -z+1/2'
'x-3/4, y+1/4, -z'
'x-1/4, -y, z-1/4'
'-x-1/2, y-1/4, z+1/4'
'-z, -x+1/2, -y+1/2'
'-z-1/2, x-1/4, y+1/4'
'z-3/4, x+1/4, -y'
'z-1/4, -x, y-1/4'
'-y, -z+1/2, -x+1/2'
'y-1/4, -z, x-1/4'
'-y-1/2, z-1/4, x+1/4'
'y-3/4, z+1/4, -x'
'-y-3/4, -x+1/4, z'
'y, x+1/2, z+1/2'
'-y-1/4, x, -z-1/4'
'y-1/2, -x-1/4, -z+1/4'
'-x-3/4, -z+1/4, y'
'x-1/2, -z-1/4, -y+1/4'
'x, z+1/2, y+1/2'
'-x-1/4, z, -y-1/4'
'-z-3/4, -y+1/4, x'
'-z-1/4, y, -x-1/4'
'z-1/2, -y-1/4, -x+1/4'
'z, y+1/2, x+1/2'
'-x+1/2, -y, -z+1/2'
'x-1/4, y-1/4, -z'
'x+1/4, -y-1/2, z-1/4'
'-x, y-3/4, z+1/4'
'-z+1/2, -x, -y+1/2'
'-z, x-3/4, y+1/4'
'z-1/4, x-1/4, -y'
'z+1/4, -x-1/2, y-1/4'
'-y+1/2, -z, -x+1/2'
'y+1/4, -z-1/2, x-1/4'
'-y, z-3/4, x+1/4'
'y-1/4, z-1/4, -x'
'-y-1/4, -x-1/4, z'
'y+1/2, x, z+1/2'
'-y+1/4, x-1/2, -z-1/4'
'y, -x-3/4, -z+1/4'
'-x-1/4, -z-1/4, y'
'x, -z-3/4, -y+1/4'
'x+1/2, z, y+1/2'
'-x+1/4, z-1/2, -y-1/4'
'-z-1/4, -y-1/4, x'
'-z+1/4, y-1/2, -x-1/4'
'z, -y-3/4, -x+1/4'
'z+1/2, y, x+1/2'
'-x+1/2, -y+1/2, -z'
'x-1/4, y+1/4, -z-1/2'
'x+1/4, -y, z-3/4'
'-x, y-1/4, z-1/4'
'-z+1/2, -x+1/2, -y'
'-z, x-1/4, y-1/4'
'z-1/4, x+1/4, -y-1/2'
'z+1/4, -x, y-3/4'
'-y+1/2, -z+1/2, -x'
'y+1/4, -z, x-3/4'
'-y, z-1/4, x-1/4'
'y-1/4, z+1/4, -x-1/2'
'-y-1/4, -x+1/4, z-1/2'
'y+1/2, x+1/2, z'
'-y+1/4, x, -z-3/4'
'y, -x-1/4, -z-1/4'
'-x-1/4, -z+1/4, y-1/2'
'x, -z-1/4, -y-1/4'
'x+1/2, z+1/2, y'
'-x+1/4, z, -y-3/4'
'-z-1/4, -y+1/4, x-1/2'
'-z+1/4, y, -x-3/4'
'z, -y-1/4, -x-1/4'
'z+1/2, y+1/2, x'
loop_
_atom_site_label
_atom_site_type_symbol
_atom_site_fract_x
_atom_site_fract_y
_atom_site_fract_z
_atom_site_U_iso_or_equiv
_atom_site_adp_type
_atom_site_occupancy
_atom_site_site_symmetry_order
_atom_site_calc_flag
_atom_site_refinement_flags_posn
_atom_site_refinement_flags_adp
_atom_site_refinement_flags_occupancy
As1 As 0.25788(5) 0.25788(5) 0.25788(5) 0.0101(3) Uani 1 6 d S T P
O1 O 0.3750 0.3750 0.1837(4) 0.0112(7) Uani 1 4 d S T P
loop_
_atom_site_aniso_label
_atom_site_aniso_U_11
_atom_site_aniso_U_22
_atom_site_aniso_U_33
_atom_site_aniso_U_23
_atom_site_aniso_U_13
_atom_site_aniso_U_12
As1 0.0101(3) 0.0101(3) 0.0101(3) -0.00068(12) -0.00068(12) -0.00068(12)
O1 0.0117(10) 0.0117(10) 0.0102(16) 0.000 0.000 -0.0022(13)
loop_
_atom_type_symbol
_atom_type_description
_atom_type_scat_dispersion_real
_atom_type_scat_dispersion_imag
_atom_type_scat_source
O O 0.0020 0.0020 'International Tables Vol C Tables 4.2.6.8 and 6.1.1.4'
As As 0.3110 0.7990 'International Tables Vol C Tables 4.2.6.8 and 6.1.1.4'
loop_
_geom_angle_atom_site_label_1
_geom_angle_atom_site_label_2
_geom_angle_atom_site_label_3
_geom_angle
_geom_angle_site_symmetry_1
_geom_angle_site_symmetry_3
O1 As1 O1 96.39(15) 9 .
O1 As1 O1 96.39(15) . 5
O1 As1 O1 96.39(15) 9 5
As1 O1 As1 131.7(2) . 26_554
loop_
_geom_bond_atom_site_label_1
_geom_bond_atom_site_label_2
_geom_bond_distance
_geom_bond_site_symmetry_2
As1 O1 1.7933(17) 9
As1 O1 1.7933(17) 5
As1 O1 1.7933(17) .
O1 As1 1.7933(17) 26_554
