#------------------------------------------------------------------------------
#$Date: 2015-09-04 08:12:49 +0300 (Fri, 04 Sep 2015) $
#$Revision: 153928 $
#$URL: svn://www.crystallography.net/cod/cif/4/51/35/4513574.cif $
#------------------------------------------------------------------------------
#
# This file is available in the Crystallography Open Database (COD),
# http://www.crystallography.net/
#
# All data on this site have been placed in the public domain by the
# contributors.
#
data_4513574
loop_
_publ_author_name
'Gu\'nka, Piotr A.'
'Dziubek, Kamil F.'
'G\/ladysiak, Andrzej'
'Dranka, Maciej'
'Piechota, Jacek'
'Hanfland, Michael'
'Katrusiak, Andrzej'
'Zachara, Janusz'
_publ_section_title
;
 Compressed Arsenolite As4O6and Its Helium Clathrate As4O6&#x00B7;2He
;
_journal_issue                   8
_journal_name_full               'Crystal Growth &amp; Design'
_journal_page_first              3740
_journal_paper_doi               10.1021/acs.cgd.5b00390
_journal_volume                  15
_journal_year                    2015
_chemical_formula_moiety         'As4 O6'
_chemical_formula_sum            'As4 O6'
_chemical_formula_weight         395.69
_chemical_name_common            arsenolite
_space_group_crystal_system      cubic
_space_group_IT_number           227
_space_group_name_Hall           '-F 4vw 2vw 3'
_space_group_name_H-M_alt        'F d -3 m'
_symmetry_space_group_name_Hall  '-F 4vw 2vw 3'
_symmetry_space_group_name_H-M   'F d -3 m :2'
_atom_sites_solution_primary     direct
_audit_creation_date             2014-10-15
_audit_creation_method
;
Olex2 1.2-beta
(compiled 2014.09.19 svn.r3010 for OlexSys, GUI svn.r4874)
;
_cell_angle_alpha                90
_cell_angle_beta                 90
_cell_angle_gamma                90
_cell_formula_units_Z            8
_cell_length_a                   10.1821(3)
_cell_length_b                   10.1821(3)
_cell_length_c                   10.1821(3)
_cell_measurement_pressure       7.71e6(8)
_cell_measurement_reflns_used    404
_cell_measurement_temperature    293(2)
_cell_measurement_theta_max      20.4680
_cell_measurement_theta_min      2.0050
_cell_volume                     1055.63(5)
_computing_cell_refinement
'CrysAlisPro, Agilent Technologies, Version 1.171.37.34 (release 22-05-2014 CrysAlis171 .NET) (compiled May 22 2014,16:03:01)'
_computing_data_collection
'CrysAlisPro, Agilent Technologies, Version 1.171.37.34 (release 22-05-2014 CrysAlis171 .NET) (compiled May 22 2014,16:03:01)'
_computing_data_reduction
'CrysAlisPro, Agilent Technologies, Version 1.171.37.34 (release 22-05-2014 CrysAlis171 .NET) (compiled May 22 2014,16:03:01)'
_computing_molecular_graphics    'Olex2 (Dolomanov et al., 2009)'
_computing_publication_material  'Olex2 (Dolomanov et al., 2009)'
_computing_structure_refinement  'ShelXL (Sheldrick, 2008)'
_computing_structure_solution    'ShelXT (Sheldrick, 2008)'
_diffrn_ambient_environment      He
_diffrn_ambient_pressure         7.71e6(8)
_diffrn_ambient_temperature      293(2)
_diffrn_detector                 'CCD plate'
_diffrn_measured_fraction_theta_full 0.877
_diffrn_measured_fraction_theta_max 0.639
_diffrn_measurement_details
;
  1 phi    148.00  212.00   0.5000    1.0000
omega____ theta____ kappa____ phi______ frames
   0.0000    0.0000    0.0000     -     128
;
_diffrn_measurement_device       'abstract diffractometer'
_diffrn_measurement_device_type
'MAR-CrysAlisPro-abstract goniometer: imported MAR images'
_diffrn_measurement_method       '\p scans'
_diffrn_orient_matrix_UB_11      -0.0330264000
_diffrn_orient_matrix_UB_12      -0.0238112000
_diffrn_orient_matrix_UB_13      -0.0004553000
_diffrn_orient_matrix_UB_21      -0.0157743000
_diffrn_orient_matrix_UB_22      0.0224359000
_diffrn_orient_matrix_UB_23      -0.0300107000
_diffrn_orient_matrix_UB_31      0.0178027000
_diffrn_orient_matrix_UB_32      -0.0241683000
_diffrn_orient_matrix_UB_33      -0.0274640000
_diffrn_radiation_monochromator  synchrotron
_diffrn_radiation_probe          x-ray
_diffrn_radiation_wavelength     0.41427
_diffrn_reflns_av_R_equivalents  0.0287
_diffrn_reflns_av_unetI/netI     0.0238
_diffrn_reflns_laue_measured_fraction_full 0.877
_diffrn_reflns_laue_measured_fraction_max 0.639
_diffrn_reflns_limit_h_max       11
_diffrn_reflns_limit_h_min       -10
_diffrn_reflns_limit_k_max       15
_diffrn_reflns_limit_k_min       -13
_diffrn_reflns_limit_l_max       16
_diffrn_reflns_limit_l_min       -17
_diffrn_reflns_number            514
_diffrn_reflns_point_group_measured_fraction_full 0.877
_diffrn_reflns_point_group_measured_fraction_max 0.639
_diffrn_reflns_theta_full        14.392
_diffrn_reflns_theta_max         20.487
_diffrn_reflns_theta_min         2.019
_diffrn_source                   synchrotron
_exptl_absorpt_coefficient_mu    5.753
_exptl_absorpt_correction_T_max  1.00000
_exptl_absorpt_correction_T_min  0.48733
_exptl_absorpt_correction_type   multi-scan
_exptl_absorpt_process_details
;
CrysAlisPro, Agilent Technologies,
Version 1.171.37.34 (release 22-05-2014 CrysAlis171 .NET)
(compiled May 22 2014,16:03:01)
Empirical absorption correction using spherical harmonics,
 implemented in SCALE3 ABSPACK scaling algorithm.
;
_exptl_crystal_density_diffrn    4.979
_exptl_crystal_description       block
_exptl_crystal_F_000             1440
_exptl_crystal_size_max          0.065
_exptl_crystal_size_mid          0.04
_exptl_crystal_size_min          0.02
_refine_diff_density_max         0.880
_refine_diff_density_min         -0.711
_refine_diff_density_rms         0.213
_refine_ls_extinction_method     none
_refine_ls_goodness_of_fit_ref   1.195
_refine_ls_hydrogen_treatment    undef
_refine_ls_matrix_type           full
_refine_ls_number_parameters     8
_refine_ls_number_reflns         101
_refine_ls_number_restraints     0
_refine_ls_restrained_S_all      1.195
_refine_ls_R_factor_all          0.0343
_refine_ls_R_factor_gt           0.0312
_refine_ls_shift/su_max          0.000
_refine_ls_shift/su_mean         0.000
_refine_ls_structure_factor_coef Fsqd
_refine_ls_weighting_details
'w=1/[\s^2^(Fo^2^)+(0.0360P)^2^+32.7020P] where P=(Fo^2^+2Fc^2^)/3'
_refine_ls_weighting_scheme      calc
_refine_ls_wR_factor_gt          0.0749
_refine_ls_wR_factor_ref         0.0798
_reflns_Friedel_coverage         0.000
_reflns_number_gt                98
_reflns_number_total             101
_reflns_threshold_expression     'I > 2\s(I)'
_cod_data_source_file            cg5b00390_si_002.cif
_cod_data_source_block           marseno_014
_cod_original_cell_volume        1055.63(9)
_cod_database_code               4513574
_shelx_space_group_comment
;
The symmetry employed for this shelxl refinement is uniquely defined
by the following loop, which should always be used as a source of
symmetry information in preference to the above space-group names.
They are only intended as comments.
;
_olex2_refinement_description
;
;
_shelx_res_file
;
    marseno_014.res created by SHELXL-2014/7

TITL marseno_014_a.res in Fd-3m
CELL 0.41427 10.1821 10.1821 10.1821 90 90 90
ZERR 8 0.0003 0.0003 0.0003 0 0 0
LATT 4
SYMM 0.75-X,0.25-Y,0.5+Z
SYMM 0.25-X,0.5+Y,0.75-Z
SYMM 0.5+X,0.75-Y,0.25-Z
SYMM +Z,+X,+Y
SYMM 0.5+Z,0.75-X,0.25-Y
SYMM 0.75-Z,0.25-X,0.5+Y
SYMM 0.25-Z,0.5+X,0.75-Y
SYMM +Y,+Z,+X
SYMM 0.25-Y,0.5+Z,0.75-X
SYMM 0.5+Y,0.75-Z,0.25-X
SYMM 0.75-Y,0.25-Z,0.5+X
SYMM 0.75+Y,0.25+X,0.5-Z
SYMM -Y,-X,-Z
SYMM 0.25+Y,0.5-X,0.75+Z
SYMM 0.5-Y,0.75+X,0.25+Z
SYMM 0.75+X,0.25+Z,0.5-Y
SYMM 0.5-X,0.75+Z,0.25+Y
SYMM -X,-Z,-Y
SYMM 0.25+X,0.5-Z,0.75+Y
SYMM 0.75+Z,0.25+Y,0.5-X
SYMM 0.25+Z,0.5-Y,0.75+X
SYMM 0.5-Z,0.75+Y,0.25+X
SYMM -Z,-Y,-X

SFAC As O
DISP As 0.311 0.799 1882.762
DISP O 0.002 0.002 10.067
UNIT 32.00064 48

L.S. 10 0 0
PLAN  20
REM Old TITL marseno_014 in Fd-3m #227
BOND $H
LIST 6
fmap 2 53
ACTA
OMIT 3 3 13
REM <HKL>E:/X-Ray_Data_Backup/ESRF_id09_2014_10/data/arsenolite/arseno_014/str
REM uct/olex2_marseno_014/marseno_014.hkl</HKL>

WGHT    0.036000   32.702000
FVAR       1.50193
AS1   1    0.261898    0.261898    0.261898    10.16667    0.00987    0.00987 =
         0.00987   -0.00061   -0.00061   -0.00061
O1    2    0.375000    0.375000    0.187858    10.25000    0.01076    0.01076 =
         0.00822    0.00000    0.00000   -0.00011
HKLF 4

REM  marseno_014_a.res in Fd-3m
REM R1 =  0.0312 for      98 Fo > 4sig(Fo)  and  0.0343 for all     101 data
REM      8 parameters refined using      0 restraints

END

WGHT      0.0358     32.7184

REM Highest difference peak  0.880,  deepest hole -0.711,  1-sigma level  0.213
Q1    1   0.1731  0.2691  0.2691  10.50000  0.05    0.88
Q2    1   0.2659  0.2659  0.3283  10.50000  0.05    0.78
Q3    1   0.2590  0.2590  0.3247  10.50000  0.05    0.77
Q4    1   0.3014  0.4486  0.3014  10.16667  0.05    0.74
Q5    1   0.2248  0.1865  0.0635  10.50000  0.05    0.71
Q6    1   0.3862  0.4406  0.2054  11.00000  0.05    0.68
Q7    1   0.4416  0.3506  0.2152  11.00000  0.05    0.59
Q8    1   0.3750  0.3750  0.2364  10.25000  0.05    0.57
Q9    1   0.0994  0.2214  0.2214  10.50000  0.05    0.50
Q10   1   0.3169  0.3465  0.1741  11.00000  0.05    0.49
Q11   1   0.4600  0.3835  0.1939  11.00000  0.05    0.49
Q12   1   0.2584  0.1418  0.1418  10.50000  0.05    0.46
Q13   1   0.3750  0.3750  0.2760  10.25000  0.05    0.46
Q14   1   0.3750  0.3750  0.0182  10.25000  0.05    0.43
Q15   1   0.4174  0.3326  0.2364  10.50000  0.05    0.41
Q16   1   0.3183  0.3183  0.1191  10.50000  0.05    0.37
Q17   1   0.2500  0.5000  0.2500  10.08333  0.05    0.36
Q18   1   0.3204  0.4789  0.1256  11.00000  0.05    0.35
Q19   1   0.3750  0.3750  0.3125  10.25000  0.05    0.33
Q20   1   0.1909  0.1909  0.1909  10.16667  0.05    0.29
;
_shelx_res_checksum              25204
_shelx_hkl_file
;
   1  -1   1 106356. 1234.93   1
  -1   1  -1 115905. 1280.33   1
   0   0  -2 127.715 39.8022   1
   0   0   2 4.36175 11.5439   1
   0   2  -2 1494.41 209.306   1
   0  -2   2 1106.77 168.908   1
  -2   2   0 1182.83 129.386   1
   2  -2   0 1304.96 141.402   1
  -1   1   3 1176.55 113.179   1
   1  -3   1 1091.71 163.907   1
  -1   3  -1 1126.23 171.694   1
  -1   1  -3 1045.20 163.038   1
   1  -1  -3 1201.35 118.767   1
   1  -1   3 1219.17 178.312   1
   1   1  -3 1300.00 169.315   1
  -1   3  -3 129814. 2229.53   1
   3  -1   3 125740. 2136.41   1
   3  -3  -1 125264. 1553.63   1
  -3   3   1 122395. 1563.89   1
  -3   3  -1 126712. 1928.88   1
   3  -3   1 125350. 1990.24   1
   1  -3   3 123792. 2221.66   1
   3  -3   3 20378.7 945.839   1
   3  -3  -3 18490.7 346.445   1
  -3   3  -3 20781.1 908.518   1
   2   0   4 16.5551 39.3763   1
   0   2  -4 50.7260 54.2820   1
   2  -4   0 14.5223 33.9189   1
   0   2   4 11.4205 19.4062   1
  -2   4  -2 39919.6 1283.54   1
  -2   2  -4 39616.2 1264.39   1
   2  -2  -4 39732.9 625.668   1
   2  -4   2 38967.0 1250.73   1
  -2   4   2 38891.2 753.977   1
   2  -2   4 39248.3 1302.27   1
   4  -2   2 38670.4 1204.77   1
   2  -4   4 8084.64 676.467   1
  -4   2  -4 7844.20 608.879   1
  -4   4  -2 8622.49 613.184   1
  -2   4  -4 9308.76 720.867   1
   4  -4  -2 8594.12 435.733   1
  -2   4   4 2272.57 53.6063   1
   4  -4   2 8679.14 632.446   1
  -2   4   4 1829.09 47.3485   1
   4  -2   4 7749.19 625.737   1
   1  -1  -5 24102.1 777.998   1
  -1   1  -5 23261.1 982.274   1
   1  -1   5 22268.9 954.987   1
  -1  -1  -5 21426.9 851.079   1
  -1  -1   5 22959.7 902.239   1
  -1   1   5 23594.1 761.183   1
   1   1  -5 23407.4 964.213   1
   1   1   5 22515.7 857.518   1
   3  -5   1 18721.3 895.710   1
   3  -1   5 19137.0 976.467   1
  -1   3   5 18944.0 560.831   1
   3  -5  -1 19039.1 734.316   1
  -3   5   1 18848.1 745.012   1
  -1   5  -3 19258.6 1066.89   1
   1  -5   3 18645.0 980.797   1
  -3   1  -5 18579.4 908.156   1
  -1   3  -5 18740.5 1012.47   1
   1  -3   5 17727.1 976.209   1
  -3   5  -1 18923.2 898.419   1
  -3   5   3 1149.50 121.997   1
  -3   3  -5 998.911 243.060   1
   5  -3   3 957.239 215.260   1
   3  -3  -5 843.551 70.5483   1
  -5   3  -3 1021.87 238.842   1
   3  -5   3 1143.58 255.620   1
   3  -3   5 1170.59 268.011   1
  -3   5  -3 1371.63 276.274   1
   5  -5  -1 226723. 2952.61   1
  -1   5  -5 230267. 4063.93   1
  -5   5  -1 226487. 3234.22   1
   5  -5   1 229773. 3448.37   1
   1  -5   5 223586. 3891.87   1
  -5   5   1 229855. 2994.75   1
  -3   5  -5 22355.8 1276.85   1
   5  -5  -3 24401.3 774.223   1
  -5   3  -5 21853.3 1185.27   1
   5  -3   5 24130.0 1297.69   1
   5  -5   3 24720.3 1316.69   1
   3  -5   5 23120.4 1271.40   1
  -5   5  -3 24046.8 1216.38   1
  -5   5  -5 87695.7 2572.55   1
   5  -5   5 80735.1 2581.63   1
   0   0  -6 27.5059 52.7065   1
   0  -2   6 628.022 183.873   1
   2   0  -6 753.789 169.567   1
  -2   0  -6 455.346 137.887   1
   0   2  -6 547.634 148.768   1
   0   2   6 715.330 150.765   1
   2   0   6 696.900 186.947   1
  -2   6   0 618.010 171.824   1
   0  -4   6 37.2012 38.7106   1
  -4   6   0 25.9250 35.6744   1
  -2   4   6 2769.81 178.776   1
   2  -6   4 2926.65 438.468   1
   4  -6   2 3181.71 431.027   1
   4  -6  -2 3212.85 308.583   1
   2  -4   6 3140.64 459.743   1
  -4   6  -2 3209.38 429.524   1
  -4   6   2 3243.40 294.777   1
   6  -4   2 2952.28 401.357   1
   4  -2   6 3843.95 516.595   1
  -2   4  -6 2868.94 446.835   1
  -4   2  -6 2973.32 415.025   1
  -2   6  -4 3089.33 487.961   1
  -6   4  -4 3674.63 540.864   1
  -4   4  -6 4909.59 588.540   1
   4  -4   6 3921.72 551.889   1
   6  -4   4 3987.45 540.903   1
   4  -6   4 4428.91 568.943   1
  -4   6  -4 4100.85 559.494   1
  -6   6   0 93533.8 2240.92   1
   6  -6   0 95992.9 2432.43   1
  -4   6  -6 3513.79 561.170   1
   4  -6   6 3441.73 545.548   1
   6  -6  -4 3273.96 285.261   1
  -6   6  -4 3681.02 530.260   1
   6  -6   4 3439.80 529.728   1
  -6   4  -6 3300.60 513.328   1
   6  -4   6 3606.39 578.014   1
   6  -6   6 220408. 4706.19   1
  -6   6  -6 226478. 4626.43   1
   1   1  -7 23702.3 1133.03   1
   1   1   7 25479.5 1120.75   1
  -1  -1  -7 23850.3 1031.16   1
  -1   1  -7 23980.2 1145.66   1
  -1  -1   7 24984.7 1118.44   1
   1  -1  -7 24235.2 942.499   1
  -1   1   7 25120.0 1004.00   1
   1  -1   7 23115.0 1126.18   1
  -1  -3   7 55782.7 1908.40   1
  -3   1  -7 51892.4 1762.10   1
  -1   3  -7 55616.1 1989.80   1
   3  -1  -7 54013.4 1463.49   1
  -3   7   1 51978.3 1531.83   1
   3  -7   1 54435.2 1731.00   1
   1   3  -7 56090.2 2025.86   1
  -1   3   7 53680.9 1266.67   1
   3  -1   7 56424.1 2012.42   1
   1  -3   7 53211.1 1931.93   1
  -3   7  -1 51034.6 1735.29   1
   3  -3  -7 213165. 2067.86   1
  -3   7   3 217223. 2529.13   1
   3  -3   7 225291. 4092.00   1
  -3   3  -7 218292. 3990.71   1
  -3   7  -3 218492. 4111.46   1
   3  -7   3 223437. 3921.21   1
   7  -5  -1 5261.70 483.400   1
  -5   7  -1 5716.31 574.533   1
  -1   5   7 5318.96 351.365   1
   5  -7   1 6037.33 611.010   1
  -5   7   1 6447.81 526.490   1
  -1   5  -7 5243.72 726.901   1
   7  -5   1 5189.83 543.393   1
   1  -5   7 5263.69 650.198   1
   5  -7  -1 6577.45 563.327   1
   5  -3   7 16745.1 1247.00   1
  -5   7  -3 15762.3 1084.70   1
   5  -3  -7 13308.3 599.173   1
   3  -7   5 14250.2 1122.76   1
   5  -7  -3 16048.5 714.082   1
  -3   7  -5 13498.8 1170.58   1
  -3   7   5 11779.2 424.021   1
  -5   3  -7 15845.1 1101.52   1
  -5   7   3 15510.5 655.686   1
   3  -5   7 14523.6 1131.36   1
  -3   5  -7 14981.1 1157.51   1
   7  -5   3 14799.6 1052.86   1
   5  -7   3 15897.9 1099.98   1
   5  -5   7 5820.17 753.253   1
   5  -7   5 5387.40 697.851   1
  -5   5  -7 6370.76 763.896   1
   7  -5   5 6804.59 790.429   1
  -5   7  -5 5944.51 732.725   1
  -7   5  -5 6183.24 758.536   1
   7  -7  -1 88942.2 2280.06   1
  -7   7  -1 87346.6 2502.77   1
   7  -7   1 90573.4 2634.15   1
  -7   7  -3 94243.9 2754.60   1
   7  -7   3 96760.2 2982.31   1
   3  -7   7 89994.0 3026.48   1
   7  -7  -3 91946.8 1920.72   1
  -3   7  -7 85597.5 3093.35   1
  -7   5  -7 20900.2 1531.20   1
   7  -5   7 18995.3 1460.67   1
   7  -7   5 20063.6 1440.87   1
  -7   7  -5 20442.8 1416.36   1
   5  -7   7 21437.1 1562.06   1
  -5   7  -7 20513.5 1483.95   1
   7  -7  -5 18743.7 645.375   1
  -7   7  -7 136642. 4035.04   1
   2   0   8 52.0833 66.5896   1
   0  -2  -8 21.5577 22.1643   1
   0   2   8 71.9379 72.3248   1
   0   2  -8 20.2860 53.4528   1
  -2   8  -2 16423.0 1281.62   1
  -2   2  -8 16404.9 1074.75   1
   2   2  -8 17571.3 1180.54   1
   2  -2   8 15788.4 1083.25   1
   2  -2  -8 16947.4 764.468   1
   2   2   8 16662.7 1000.73   1
  -2   2   8 18041.0 812.824   1
  -2   4   8 14584.8 613.574   1
   2  -4   8 14876.1 1134.96   1
  -2   8  -4 15003.1 1263.84   1
   4  -2  -8 14259.6 715.077   1
   2  -8   4 14353.3 1132.66   1
  -4   8  -2 13595.1 1035.20   1
  -4   2  -8 14619.9 1064.71   1
   4  -2   8 16468.9 1248.53   1
  -4   8   2 15181.8 823.291   1
  -2   4  -8 16245.7 1228.79   1
   4  -8   2 15219.2 1053.81   1
  -4   4  -8 232954. 4661.35   1
   4  -8   4 237381. 4556.23   1
   4  -4   8 234210. 4749.97   1
  -4   8  -4 232438. 4701.29   1
  -4   8   4 234804. 2514.39   1
   0   6  -8 5.00385 107.115   1
  -6   8   0 11.2611 70.9940   1
   8  -6   0 44.0495 73.8473   1
  -2   8  -6 5681.11 832.071   1
   2  -6   8 6792.84 821.958   1
  -6   8  -2 6575.86 726.740   1
  -2   6   8 5261.98 296.996   1
   6  -8  -2 6392.97 537.118   1
  -2   6  -8 6032.99 810.010   1
  -6   8   2 5683.24 489.761   1
   6  -8   2 6765.17 735.305   1
   8  -6   2 6191.11 725.792   1
   2  -8   6 6211.45 824.231   1
  -4   6  -8 8628.37 1007.19   1
   4  -6   8 7897.88 914.106   1
   6  -8   4 8719.95 927.263   1
   6  -4  -8 5195.42 314.953   1
   4  -8   6 8785.68 975.904   1
   6  -4   8 8761.73 990.087   1
  -6   8  -4 9104.12 923.397   1
   8  -6   4 7722.40 858.047   1
  -4   8  -6 8056.33 988.746   1
  -6   4  -8 8728.14 922.554   1
  -8   6  -6 10466.5 1088.65   1
   6  -8   6 10645.9 1115.49   1
  -6   8  -6 9845.88 1068.74   1
   6  -6   8 10127.5 1120.17   1
  -6   6  -8 10297.2 1100.16   1
   8  -6   6 10672.1 1089.11   1
   8  -6  -6 7624.71 451.489   1
   8  -8   0 133646. 3264.96   1
  -8   8  -2 34122.0 1768.41   1
   8  -8  -2 31677.1 1364.85   1
   8  -8   2 34911.1 1853.08   1
  -2   8  -8 26848.9 2010.28   1
   2  -8   8 29981.6 1936.86   1
   8  -8  -4 175456. 2725.83   1
   8  -8   4 179242. 4532.13   1
  -8   8  -4 172310. 4226.22   1
  -4   8  -8 168976. 4844.65   1
  -8   8  -6 19986.6 1570.83   1
  -1   1   9 96227.8 2331.13   1
  -1  -1   9 99035.5 2571.86   1
  -1   1  -9 93377.6 2585.83   1
   1  -1   9 94208.2 2694.35   1
   1  -1  -9 95417.6 2217.23   1
   1   1   9 98460.9 2595.44   1
   1   1  -9 96516.6 2634.27   1
  -1  -1  -9 95430.1 2418.80   1
   3   1  -9 48192.7 1997.31   1
  -1   3   9 47305.0 1472.34   1
  -3   9   1 46204.2 1905.54   1
   1   3  -9 45154.8 2041.77   1
   1  -3   9 45354.1 2021.22   1
   3  -1  -9 46884.0 1586.58   1
   3  -1   9 48580.4 2142.89   1
  -3   1  -9 43023.6 1818.39   1
  -1   3  -9 45244.0 2046.10   1
  -1  -3   9 47469.3 2029.51   1
   1   3   9 45459.8 1652.65   1
  -3   9  -1 45540.1 2069.72   1
   3   1   9 47579.6 2031.67   1
   3  -3  -9 593.798 143.289   1
  -3   3  -9 584.241 207.258   1
  -3   9   3 364.520 144.483   1
   3  -3   9 277.638 168.261   1
  -3   9  -3 420.772 210.883   1
   5  -9   1 86630.7 2539.96   1
   5  -9  -1 85533.3 2222.17   1
  -1   5   9 83805.9 1750.83   1
  -1   5  -9 81642.9 3088.77   1
  -5   9  -1 83590.1 2562.82   1
  -5   9   1 86134.6 2286.19   1
   1  -5   9 80629.4 2822.91   1
   3  -5   9 36911.1 1990.73   1
  -3   9   5 34800.8 1135.00   1
  -3   9  -5 37416.4 2251.43   1
  -5   9   3 37730.7 1223.74   1
   5  -3   9 38046.0 2118.32   1
   5  -3  -9 35079.8 1079.31   1
  -5   3  -9 37321.8 1909.67   1
  -5   9  -3 36158.8 1896.73   1
   5  -9   3 36783.8 1863.06   1
   3  -9   5 35237.4 1993.47   1
  -3   5  -9 38377.4 2076.36   1
   5  -9   5 139189. 3945.78   1
   5  -5   9 142474. 4126.64   1
  -5   5  -9 145050. 4124.33   1
  -5   9  -5 145012. 4099.31   1
  -7   9  -1 1632.34 335.225   1
   1  -7   9 996.970 353.535   1
   7  -9  -1 791.371 206.341   1
   9  -7   1 712.802 255.954   1
   7  -9   1 1523.70 349.401   1
  -1   7  -9 1277.92 438.214   1
  -7   9   1 1304.19 279.189   1
  -3   9  -7 2565.29 591.030   1
   3  -9   7 3238.69 638.088   1
   9  -7   3 2617.75 530.653   1
   3  -7   9 2030.60 470.610   1
  -3   9   7 1543.15 144.548   1
   7  -9   3 3117.35 568.278   1
  -3   7  -9 3403.54 672.820   1
  -7   9  -3 3723.33 605.241   1
   7  -9  -3 3168.16 390.315   1
   9  -7   5 3909.08 674.650   1
  -5   7  -9 4154.99 735.128   1
  -7   9  -5 5479.24 786.915   1
   7  -9   5 4438.12 726.058   1
   9  -7  -5 4022.79 434.553   1
  -5   9  -7 4183.85 763.998   1
  -7   5  -9 5434.30 819.176   1
   9  -9  -1 68055.8 2341.12   1
   9  -9   1 71446.6 2720.60   1
   9  -9  -3 46211.0 1688.54   1
   9  -9   3 46966.6 2425.12   1
  -9   9  -3 46895.5 2310.34   1
  -9   9  -5 84107.7 3315.19   1
   0   0  10 38.4159 41.1175   1
   0   0 -10 1.82244 56.3090   1
   0  -2  10 13852.3 1091.49   1
   0  -2 -10 12820.4 909.534   1
   0   2  10 13036.3 899.098   1
   2   0  10 13087.8 1080.47   1
   2   0 -10 13346.6 970.275   1
  -2   0 -10 12281.6 963.500   1
   0   2 -10 12968.7 1091.19   1
  -2   0  10 12972.3 923.464   1
   2  -2  10 239494. 4861.99   1
  -2   2 -10 233532. 4666.44   1
   2   2 -10 237058. 4710.96   1
   2  -2 -10 247949. 3495.45   1
  -2   2  10 245032. 3553.88   1
   2   2  10 243499. 4457.69   1
   0   4  10 113.444 56.1100   1
   4   0  10 77.4697 151.490   1
   4   0 -10 27.9538 72.8339   1
  -4  10   0 69.5084 86.5293   1
   2  -4  10 2677.73 541.437   1
  -4  10   2 2657.81 433.381   1
  -4   2 -10 4141.53 620.674   1
   4  -2 -10 3622.99 428.642   1
  -2   4 -10 3891.31 663.911   1
  -4  10  -2 3287.45 620.188   1
  -2   4  10 3663.19 380.679   1
   4 -10   4 947.109 326.084   1
  -4  10  -4 1029.43 385.902   1
   4  -4  10 947.993 332.002   1
  -4   4 -10 951.793 314.190   1
  -4  10   4 967.636 215.165   1
  -6  10   0 5349.10 634.834   1
   0   6 -10 4005.61 757.252   1
   6 -10   0 5825.30 655.859   1
   2  -6  10 122344. 3804.06   1
  -6  10  -2 126042. 3456.08   1
  -2   6  10 128701. 1961.20   1
  -6  10   2 132842. 2760.07   1
  -2   6 -10 123092. 4072.79   1
   6 -10   2 126684. 3405.23   1
   6 -10   4 37243.0 2047.38   1
  -4   6 -10 35755.9 2174.60   1
   6  -4 -10 31353.8 844.963   1
  -4  10  -6 35824.1 2394.46   1
  -6  10   4 32664.1 1076.94   1
  -6   4 -10 36613.2 2141.60   1
  -4  10   6 29156.3 846.909   1
  -6  10  -4 36449.6 2049.92   1
  -6  10  -6 70709.3 3109.08   1
  10  -8   0 147.416 43.7528   1
   8 -10   0 72.4557 97.8398   1
  10  -8   2 69.0507 166.970   1
   8 -10   2 162.095 142.638   1
  -2   8  10 11.2732 23.1046   1
  -8  10  -4 2681.80 557.034   1
   8 -10   4 2535.66 574.815   1
  10  -8  -4 3107.71 442.365   1
  10 -10   0 71713.8 2795.93   1
  10 -10  -2 43502.4 1898.02   1
  10 -10   2 47826.5 2574.11   1
  -1   1  11 61225.8 2067.67   1
   1  -1  11 60403.1 2404.58   1
   1   1  11 59739.5 2193.91   1
  -1   1 -11 58705.1 2321.34   1
   1  -1 -11 62423.9 2045.20   1
   1   1 -11 61361.0 2321.31   1
  -1  -1  11 61824.5 2258.82   1
  -1  -1 -11 65498.4 2325.00   1
   1  -3  11 53568.3 2435.40   1
  -1   3  11 54968.1 1805.07   1
   3  -1  11 57062.7 2523.55   1
   3   1 -11 53322.6 2242.96   1
   1   3  11 52748.2 2049.75   1
   1   3 -11 52470.3 2455.06   1
   3   1  11 56303.8 2446.42   1
  -3   1 -11 50713.8 2216.70   1
   3  -1 -11 55883.0 1916.69   1
  -1  -3  11 54349.7 2408.19   1
  -1   3 -11 55306.9 2503.23   1
   3  -3  11 76887.9 3100.38   1
  -3   3 -11 78383.8 3043.48   1
   3  -3 -11 82188.9 1978.43   1
   1  -5  11 2106.87 512.759   1
  -1   5  11 3156.31 397.489   1
   5  -1  11 2811.62 619.668   1
   5  -1 -11 2772.34 445.003   1
  -5  11  -1 2486.36 495.884   1
  -5  11   1 2530.34 447.546   1
  -1   5 -11 2383.20 580.045   1
   1   5 -11 1926.76 565.828   1
   5  -3 -11 23249.5 974.116   1
  -3   5 -11 22092.9 1708.04   1
  -5  11  -3 23258.6 1752.67   1
  -5   3 -11 25345.2 1764.47   1
  -5  11   3 23444.2 1193.02   1
   5 -11   3 21391.4 1621.52   1
  -5  11   5 14167.2 754.611   1
  -5  11  -5 15081.9 1538.59   1
  -7  11  -1 55487.1 2290.29   1
  -1   7  11 59604.8 1676.51   1
  -7  11   1 59655.2 2102.89   1
   7 -11  -1 60174.2 2222.01   1
   7 -11   1 55679.8 2280.21   1
   7 -11   3 71137.3 2868.14   1
  -7  11  -3 77249.6 2970.60   1
  -7  11   3 77677.9 2045.36   1
   9 -11  -1 1722.24 366.207   1
  -9  11  -1 1945.25 433.533   1
   9 -11   1 945.475 339.793   1
  11  -9  -1 205.278 172.035   1
  11  -9   1 36.4712 105.710   1
  -9  11  -3 962.233 341.568   1
  11 -11  -1 14578.8 1252.01   1
  11 -11   1 16474.0 1539.69   1
   0   0  12 74899.9 2653.11   1
   0   0 -12 75496.0 2525.55   1
   0   2 -12 2.75187 68.0210   1
  -2   0 -12 74.8524 73.8785   1
   0   2  12 122.948 99.7471   1
   2   0 -12 26.1458 13.4641   1
  -2   2  12 2863.89 449.365   1
   2   2 -12 2790.36 566.567   1
   2  -2 -12 2424.73 383.311   1
   2  -2  12 3167.22 585.063   1
  -2   2 -12 2992.19 582.621   1
   2   2  12 2545.98 495.239   1
   0   4  12 112119. 2770.82   1
   4   0  12 109167. 3887.86   1
   4   0 -12 113323. 3182.09   1
   0   4 -12 113359. 3985.82   1
   0  -4  12 107432. 3676.89   1
   4  -2 -12 12895.3 859.987   1
  -2   4 -12 12735.9 1289.97   1
  -4   2 -12 13431.2 1286.37   1
  -2   4  12 13271.1 879.140   1
  -4  12  -4 81853.7 4228.01   1
  -6  12   0 256.466 138.481   1
  -6  12   2 203.867 114.757   1
   6  -2 -12 322.028 188.567   1
  -6  12  -2 344.724 207.674   1
  -6  12   4 8190.39 702.454   1
  -6  12  -4 8236.15 1128.60   1
  -8  12   0 42433.4 1989.81   1
   8 -12   0 42252.4 2053.03   1
  -8  12  -2 29037.7 1797.26   1
  -8  12   2 31254.6 1547.98   1
   8 -12   2 27828.9 1790.98   1
  10 -12   0 5.58132 66.7895   1
 -10  12  -2 490.080 244.737   1
  10 -12  -2 230.026 168.624   1
  -1  -1 -13 46477.6 2188.98   1
   1  -1  13 50249.4 2462.47   1
   1   1 -13 50689.3 2246.38   1
   1   1  13 51858.0 2282.55   1
  -1   1 -13 53225.0 2376.64   1
   1  -1 -13 51137.1 2004.33   1
  -1  -1  13 50168.5 2297.87   1
  -1   1  13 52589.2 2140.38   1
  -1   3  13 19401.8 1223.91   1
  -1   3 -13 17392.5 1488.56   1
   3  -1 -13 19008.8 1204.92   1
   3  -1  13 17001.4 1511.95   1
   1   3  13 16166.3 1214.78   1
   3   1  13 15645.8 1434.06   1
   3   1 -13 17227.4 1368.93   1
   1   3 -13 18096.0 1601.43   1
  -3   1 -13 20094.7 1617.33   1
   3  -3 -13 42.5946 16.1844   1
  -1   5  13 62096.4 2129.15   1
  -5  13  -1 65239.6 3205.82   1
  -5  13   1 62007.3 2783.49   1
   5  -1 -13 62384.9 2499.50   1
   5  -3 -13 33451.1 1373.47   1
  -5  13  -3 36503.3 2681.95   1
  -5  13   3 32952.5 1758.21   1
  -7  13  -1 9789.80 1026.55   1
  -7  13   1 10003.0 977.560   1
  -7  13   3 465.908 193.202   1
   9 -13   1 37346.9 2088.35   1
  -9  13   1 47014.9 2262.59   1
   0  -2  14 4254.27 707.569   1
   2   0 -14 4536.44 647.628   1
   0   2 -14 4129.53 708.823   1
   0   2  14 3743.33 614.920   1
   2   0  14 3236.62 598.855   1
  -2   0 -14 4733.74 756.931   1
  -2   2 -14 43074.3 2396.45   1
   2  -2 -14 46828.7 1935.84   1
   2   2 -14 40922.6 2318.48   1
   0   4  14 14.4457 91.7137   1
   4   0 -14 68.9888 126.855   1
  -6  14   0 29426.4 2033.55   1
  -6  14  -2 28573.9 2323.29   1
 -10  14   0 26870.1 1986.03   1
   1   1  15 18053.1 1479.27   1
   1   1 -15 20754.8 1596.78   1
  -1   1 -15 19845.8 1571.35   1
   1  -1 -15 20583.7 1404.00   1
  -1  -1  15 16391.6 1459.58   1
  -1   1  15 19754.2 1455.50   1
   3  -1 -15 34694.8 1930.07   1
  -1   3  15 30653.0 1771.49   1
   3   1 -15 31537.9 2072.80   1
  -7  15  -1 18937.4 1752.02   1
   0   0 -16 42996.7 2291.87   1
   0   2  16 75.3304 85.8685   1
   2   0 -16 459.902 254.549   1
   1  -1 -17 34688.2 2261.91   1
   0   0   0    0.00    0.00   0
TITL marseno_014 in Fd-3m
REM Fd-3m (#227 in standard setting)
CELL 0.41427  10.182099  10.182099  10.182099  90.0000  90.0000  90.0000
ZERR    5.00   0.000327   0.000327   0.000327   0.0000   0.0000   0.0000
LATT  4
SYMM -x+3/4,-y+1/4, z+1/2
SYMM -x+1/4, y+1/2,-z+3/4
SYMM  x+1/2,-y+3/4,-z+1/4
SYMM  z, x, y
SYMM  z+1/2,-x+3/4,-y+1/4
SYMM -z+3/4,-x+1/4, y+1/2
SYMM -z+1/4, x+1/2,-y+3/4
SYMM  y, z, x
SYMM -y+1/4, z+1/2,-x+3/4
SYMM  y+1/2,-z+3/4,-x+1/4
SYMM -y+3/4,-z+1/4, x+1/2
SYMM  y+3/4, x+1/4,-z+1/2
SYMM -y,-x,-z
SYMM  y+1/4,-x+1/2, z+3/4
SYMM -y+1/2, x+3/4, z+1/4
SYMM  x+3/4, z+1/4,-y+1/2
SYMM -x+1/2, z+3/4, y+1/4
SYMM -x,-z,-y
SYMM  x+1/4,-z+1/2, y+3/4
SYMM  z+3/4, y+1/4,-x+1/2
SYMM  z+1/4,-y+1/2, x+3/4
SYMM -z+1/2, y+3/4, x+1/4
SYMM -z,-y,-x
SFAC O As
UNIT 30.00 20.00
TREF
HKLF 4
END
;
_shelx_hkl_checksum              87084
_shelx_shelxl_version_number     2014/7
loop_
_space_group_symop_operation_xyz
'x, y, z'
'-x+3/4, -y+1/4, z+1/2'
'-x+1/4, y+1/2, -z+3/4'
'x+1/2, -y+3/4, -z+1/4'
'z, x, y'
'z+1/2, -x+3/4, -y+1/4'
'-z+3/4, -x+1/4, y+1/2'
'-z+1/4, x+1/2, -y+3/4'
'y, z, x'
'-y+1/4, z+1/2, -x+3/4'
'y+1/2, -z+3/4, -x+1/4'
'-y+3/4, -z+1/4, x+1/2'
'y+3/4, x+1/4, -z+1/2'
'-y, -x, -z'
'y+1/4, -x+1/2, z+3/4'
'-y+1/2, x+3/4, z+1/4'
'x+3/4, z+1/4, -y+1/2'
'-x+1/2, z+3/4, y+1/4'
'-x, -z, -y'
'x+1/4, -z+1/2, y+3/4'
'z+3/4, y+1/4, -x+1/2'
'z+1/4, -y+1/2, x+3/4'
'-z+1/2, y+3/4, x+1/4'
'-z, -y, -x'
'x, y+1/2, z+1/2'
'-x+3/4, -y+3/4, z+1'
'-x+1/4, y+1, -z+5/4'
'x+1/2, -y+5/4, -z+3/4'
'z, x+1/2, y+1/2'
'z+1/2, -x+5/4, -y+3/4'
'-z+3/4, -x+3/4, y+1'
'-z+1/4, x+1, -y+5/4'
'y, z+1/2, x+1/2'
'-y+1/4, z+1, -x+5/4'
'y+1/2, -z+5/4, -x+3/4'
'-y+3/4, -z+3/4, x+1'
'y+3/4, x+3/4, -z+1'
'-y, -x+1/2, -z+1/2'
'y+1/4, -x+1, z+5/4'
'-y+1/2, x+5/4, z+3/4'
'x+3/4, z+3/4, -y+1'
'-x+1/2, z+5/4, y+3/4'
'-x, -z+1/2, -y+1/2'
'x+1/4, -z+1, y+5/4'
'z+3/4, y+3/4, -x+1'
'z+1/4, -y+1, x+5/4'
'-z+1/2, y+5/4, x+3/4'
'-z, -y+1/2, -x+1/2'
'x+1/2, y, z+1/2'
'-x+5/4, -y+1/4, z+1'
'-x+3/4, y+1/2, -z+5/4'
'x+1, -y+3/4, -z+3/4'
'z+1/2, x, y+1/2'
'z+1, -x+3/4, -y+3/4'
'-z+5/4, -x+1/4, y+1'
'-z+3/4, x+1/2, -y+5/4'
'y+1/2, z, x+1/2'
'-y+3/4, z+1/2, -x+5/4'
'y+1, -z+3/4, -x+3/4'
'-y+5/4, -z+1/4, x+1'
'y+5/4, x+1/4, -z+1'
'-y+1/2, -x, -z+1/2'
'y+3/4, -x+1/2, z+5/4'
'-y+1, x+3/4, z+3/4'
'x+5/4, z+1/4, -y+1'
'-x+1, z+3/4, y+3/4'
'-x+1/2, -z, -y+1/2'
'x+3/4, -z+1/2, y+5/4'
'z+5/4, y+1/4, -x+1'
'z+3/4, -y+1/2, x+5/4'
'-z+1, y+3/4, x+3/4'
'-z+1/2, -y, -x+1/2'
'x+1/2, y+1/2, z'
'-x+5/4, -y+3/4, z+1/2'
'-x+3/4, y+1, -z+3/4'
'x+1, -y+5/4, -z+1/4'
'z+1/2, x+1/2, y'
'z+1, -x+5/4, -y+1/4'
'-z+5/4, -x+3/4, y+1/2'
'-z+3/4, x+1, -y+3/4'
'y+1/2, z+1/2, x'
'-y+3/4, z+1, -x+3/4'
'y+1, -z+5/4, -x+1/4'
'-y+5/4, -z+3/4, x+1/2'
'y+5/4, x+3/4, -z+1/2'
'-y+1/2, -x+1/2, -z'
'y+3/4, -x+1, z+3/4'
'-y+1, x+5/4, z+1/4'
'x+5/4, z+3/4, -y+1/2'
'-x+1, z+5/4, y+1/4'
'-x+1/2, -z+1/2, -y'
'x+3/4, -z+1, y+3/4'
'z+5/4, y+3/4, -x+1/2'
'z+3/4, -y+1, x+3/4'
'-z+1, y+5/4, x+1/4'
'-z+1/2, -y+1/2, -x'
'-x, -y, -z'
'x-3/4, y-1/4, -z-1/2'
'x-1/4, -y-1/2, z-3/4'
'-x-1/2, y-3/4, z-1/4'
'-z, -x, -y'
'-z-1/2, x-3/4, y-1/4'
'z-3/4, x-1/4, -y-1/2'
'z-1/4, -x-1/2, y-3/4'
'-y, -z, -x'
'y-1/4, -z-1/2, x-3/4'
'-y-1/2, z-3/4, x-1/4'
'y-3/4, z-1/4, -x-1/2'
'-y-3/4, -x-1/4, z-1/2'
'y, x, z'
'-y-1/4, x-1/2, -z-3/4'
'y-1/2, -x-3/4, -z-1/4'
'-x-3/4, -z-1/4, y-1/2'
'x-1/2, -z-3/4, -y-1/4'
'x, z, y'
'-x-1/4, z-1/2, -y-3/4'
'-z-3/4, -y-1/4, x-1/2'
'-z-1/4, y-1/2, -x-3/4'
'z-1/2, -y-3/4, -x-1/4'
'z, y, x'
'-x, -y+1/2, -z+1/2'
'x-3/4, y+1/4, -z'
'x-1/4, -y, z-1/4'
'-x-1/2, y-1/4, z+1/4'
'-z, -x+1/2, -y+1/2'
'-z-1/2, x-1/4, y+1/4'
'z-3/4, x+1/4, -y'
'z-1/4, -x, y-1/4'
'-y, -z+1/2, -x+1/2'
'y-1/4, -z, x-1/4'
'-y-1/2, z-1/4, x+1/4'
'y-3/4, z+1/4, -x'
'-y-3/4, -x+1/4, z'
'y, x+1/2, z+1/2'
'-y-1/4, x, -z-1/4'
'y-1/2, -x-1/4, -z+1/4'
'-x-3/4, -z+1/4, y'
'x-1/2, -z-1/4, -y+1/4'
'x, z+1/2, y+1/2'
'-x-1/4, z, -y-1/4'
'-z-3/4, -y+1/4, x'
'-z-1/4, y, -x-1/4'
'z-1/2, -y-1/4, -x+1/4'
'z, y+1/2, x+1/2'
'-x+1/2, -y, -z+1/2'
'x-1/4, y-1/4, -z'
'x+1/4, -y-1/2, z-1/4'
'-x, y-3/4, z+1/4'
'-z+1/2, -x, -y+1/2'
'-z, x-3/4, y+1/4'
'z-1/4, x-1/4, -y'
'z+1/4, -x-1/2, y-1/4'
'-y+1/2, -z, -x+1/2'
'y+1/4, -z-1/2, x-1/4'
'-y, z-3/4, x+1/4'
'y-1/4, z-1/4, -x'
'-y-1/4, -x-1/4, z'
'y+1/2, x, z+1/2'
'-y+1/4, x-1/2, -z-1/4'
'y, -x-3/4, -z+1/4'
'-x-1/4, -z-1/4, y'
'x, -z-3/4, -y+1/4'
'x+1/2, z, y+1/2'
'-x+1/4, z-1/2, -y-1/4'
'-z-1/4, -y-1/4, x'
'-z+1/4, y-1/2, -x-1/4'
'z, -y-3/4, -x+1/4'
'z+1/2, y, x+1/2'
'-x+1/2, -y+1/2, -z'
'x-1/4, y+1/4, -z-1/2'
'x+1/4, -y, z-3/4'
'-x, y-1/4, z-1/4'
'-z+1/2, -x+1/2, -y'
'-z, x-1/4, y-1/4'
'z-1/4, x+1/4, -y-1/2'
'z+1/4, -x, y-3/4'
'-y+1/2, -z+1/2, -x'
'y+1/4, -z, x-3/4'
'-y, z-1/4, x-1/4'
'y-1/4, z+1/4, -x-1/2'
'-y-1/4, -x+1/4, z-1/2'
'y+1/2, x+1/2, z'
'-y+1/4, x, -z-3/4'
'y, -x-1/4, -z-1/4'
'-x-1/4, -z+1/4, y-1/2'
'x, -z-1/4, -y-1/4'
'x+1/2, z+1/2, y'
'-x+1/4, z, -y-3/4'
'-z-1/4, -y+1/4, x-1/2'
'-z+1/4, y, -x-3/4'
'z, -y-1/4, -x-1/4'
'z+1/2, y+1/2, x'
loop_
_atom_site_label
_atom_site_type_symbol
_atom_site_fract_x
_atom_site_fract_y
_atom_site_fract_z
_atom_site_U_iso_or_equiv
_atom_site_adp_type
_atom_site_occupancy
_atom_site_site_symmetry_order
_atom_site_calc_flag
_atom_site_refinement_flags_posn
_atom_site_refinement_flags_adp
_atom_site_refinement_flags_occupancy
As1 As 0.26190(6) 0.26190(6) 0.26190(6) 0.0099(4) Uani 1 6 d S T P
O1 O 0.3750 0.3750 0.1879(5) 0.0099(9) Uani 1 4 d S T P
loop_
_atom_site_aniso_label
_atom_site_aniso_U_11
_atom_site_aniso_U_22
_atom_site_aniso_U_33
_atom_site_aniso_U_23
_atom_site_aniso_U_13
_atom_site_aniso_U_12
As1 0.0099(4) 0.0099(4) 0.0099(4) -0.00061(16) -0.00061(16) -0.00061(16)
O1 0.0108(13) 0.0108(13) 0.008(2) 0.000 0.000 -0.0001(17)
loop_
_atom_type_symbol
_atom_type_description
_atom_type_scat_dispersion_real
_atom_type_scat_dispersion_imag
_atom_type_scat_source
As As 0.3110 0.7990 'International Tables Vol C Tables 4.2.6.8 and 6.1.1.4'
O O 0.0020 0.0020 'International Tables Vol C Tables 4.2.6.8 and 6.1.1.4'
loop_
_geom_angle_atom_site_label_1
_geom_angle_atom_site_label_2
_geom_angle_atom_site_label_3
_geom_angle
_geom_angle_site_symmetry_1
_geom_angle_site_symmetry_3
O1 As1 O1 97.32(18) . 9
O1 As1 O1 97.32(18) 9 5
O1 As1 O1 97.32(18) . 5
As1 O1 As1 130.3(3) 26_554 .
loop_
_geom_bond_atom_site_label_1
_geom_bond_atom_site_label_2
_geom_bond_distance
_geom_bond_site_symmetry_2
As1 O1 1.795(2) .
As1 O1 1.795(2) 5
As1 O1 1.795(2) 9
O1 As1 1.795(2) 26_554
