#------------------------------------------------------------------------------
#$Date: 2015-09-04 08:12:49 +0300 (Fri, 04 Sep 2015) $
#$Revision: 153928 $
#$URL: svn://www.crystallography.net/cod/cif/4/51/35/4513580.cif $
#------------------------------------------------------------------------------
#
# This file is available in the Crystallography Open Database (COD),
# http://www.crystallography.net/
#
# All data on this site have been placed in the public domain by the
# contributors.
#
data_4513580
loop_
_publ_author_name
'Gu\'nka, Piotr A.'
'Dziubek, Kamil F.'
'G\/ladysiak, Andrzej'
'Dranka, Maciej'
'Piechota, Jacek'
'Hanfland, Michael'
'Katrusiak, Andrzej'
'Zachara, Janusz'
_publ_section_title
;
 Compressed Arsenolite As4O6and Its Helium Clathrate As4O6&#x00B7;2He
;
_journal_issue                   8
_journal_name_full               'Crystal Growth &amp; Design'
_journal_page_first              3740
_journal_paper_doi               10.1021/acs.cgd.5b00390
_journal_volume                  15
_journal_year                    2015
_chemical_formula_moiety         'As4 O6'
_chemical_formula_sum            'As4 O6'
_chemical_formula_weight         395.69
_chemical_name_common            arsenolite
_space_group_crystal_system      cubic
_space_group_IT_number           227
_space_group_name_Hall           '-F 4vw 2vw 3'
_space_group_name_H-M_alt        'F d -3 m'
_symmetry_space_group_name_Hall  '-F 4vw 2vw 3'
_symmetry_space_group_name_H-M   'F d -3 m :2'
_atom_sites_solution_primary     direct
_audit_creation_date             2014-10-15
_audit_creation_method
;
Olex2 1.2-beta
(compiled 2014.09.19 svn.r3010 for OlexSys, GUI svn.r4874)
;
_cell_angle_alpha                90
_cell_angle_beta                 90
_cell_angle_gamma                90
_cell_formula_units_Z            8
_cell_length_a                   9.7082(5)
_cell_length_b                   9.7082(5)
_cell_length_c                   9.7082(5)
_cell_measurement_pressure       2.007e7(9)
_cell_measurement_reflns_used    252
_cell_measurement_temperature    293(2)
_cell_measurement_theta_max      19.7380
_cell_measurement_theta_min      2.1050
_cell_volume                     914.99(8)
_computing_cell_refinement
;
CrysAlisPro, Agilent Technologies,
Version 1.171.37.34 (release 22-05-2014 CrysAlis171 .NET)
(compiled May 22 2014,16:03:01)
;
_computing_data_collection
;
CrysAlisPro, Agilent Technologies,
Version 1.171.37.34 (release 22-05-2014 CrysAlis171 .NET)
(compiled May 22 2014,16:03:01)
;
_computing_data_reduction
;
CrysAlisPro, Agilent Technologies,
Version 1.171.37.34 (release 22-05-2014 CrysAlis171 .NET)
(compiled May 22 2014,16:03:01)
;
_computing_molecular_graphics    'Olex2 (Dolomanov et al., 2009)'
_computing_publication_material  'Olex2 (Dolomanov et al., 2009)'
_computing_structure_refinement  'ShelXL (Sheldrick, 2008)'
_computing_structure_solution    'ShelXT (Sheldrick, 2008)'
_diffrn_ambient_environment      He
_diffrn_ambient_pressure         2.007e7(9)
_diffrn_ambient_temperature      293(2)
_diffrn_detector                 'CCD plate'
_diffrn_measured_fraction_theta_full 0.804
_diffrn_measured_fraction_theta_max 0.620
_diffrn_measurement_details
;
  1 phi    148.00  212.00   0.5000    1.0000
omega____ theta____ kappa____ phi______ frames
   0.0000    0.0000    0.0000     -     128
;
_diffrn_measurement_device       'abstract diffractometer'
_diffrn_measurement_device_type
'MAR-CrysAlisPro-abstract goniometer: imported MAR images'
_diffrn_measurement_method       '\p scans'
_diffrn_orient_matrix_UB_11      -0.0249882000
_diffrn_orient_matrix_UB_12      0.0345885000
_diffrn_orient_matrix_UB_13      -0.0007366000
_diffrn_orient_matrix_UB_21      0.0245451000
_diffrn_orient_matrix_UB_22      0.0170175000
_diffrn_orient_matrix_UB_23      -0.0304663000
_diffrn_orient_matrix_UB_31      -0.0243761000
_diffrn_orient_matrix_UB_32      -0.0182296000
_diffrn_orient_matrix_UB_33      -0.0299111000
_diffrn_radiation_monochromator  synchrotron
_diffrn_radiation_probe          x-ray
_diffrn_radiation_wavelength     0.41427
_diffrn_reflns_av_R_equivalents  0.0393
_diffrn_reflns_av_unetI/netI     0.0297
_diffrn_reflns_laue_measured_fraction_full 0.804
_diffrn_reflns_laue_measured_fraction_max 0.620
_diffrn_reflns_limit_h_max       13
_diffrn_reflns_limit_h_min       -12
_diffrn_reflns_limit_k_max       9
_diffrn_reflns_limit_k_min       -11
_diffrn_reflns_limit_l_max       15
_diffrn_reflns_limit_l_min       -16
_diffrn_reflns_number            405
_diffrn_reflns_point_group_measured_fraction_full 0.804
_diffrn_reflns_point_group_measured_fraction_max 0.620
_diffrn_reflns_theta_full        14.392
_diffrn_reflns_theta_max         19.757
_diffrn_reflns_theta_min         2.118
_diffrn_source                   synchrotron
_exptl_absorpt_coefficient_mu    6.638
_exptl_absorpt_correction_T_max  1.00000
_exptl_absorpt_correction_T_min  0.15130
_exptl_absorpt_correction_type   multi-scan
_exptl_absorpt_process_details
;
CrysAlisPro, Agilent Technologies,
Version 1.171.37.34 (release 22-05-2014 CrysAlis171 .NET)
(compiled May 22 2014,16:03:01)
Empirical absorption correction using spherical harmonics,
 implemented in SCALE3 ABSPACK scaling algorithm.
;
_exptl_crystal_density_diffrn    5.745
_exptl_crystal_description       block
_exptl_crystal_F_000             1440
_exptl_crystal_size_max          0.065
_exptl_crystal_size_mid          0.04
_exptl_crystal_size_min          0.02
_refine_diff_density_max         0.608
_refine_diff_density_min         -0.900
_refine_diff_density_rms         0.166
_refine_ls_extinction_method     none
_refine_ls_goodness_of_fit_ref   1.297
_refine_ls_hydrogen_treatment    undef
_refine_ls_matrix_type           full
_refine_ls_number_parameters     8
_refine_ls_number_reflns         80
_refine_ls_number_restraints     0
_refine_ls_restrained_S_all      1.297
_refine_ls_R_factor_all          0.0510
_refine_ls_R_factor_gt           0.0475
_refine_ls_shift/su_max          0.000
_refine_ls_shift/su_mean         0.000
_refine_ls_structure_factor_coef Fsqd
_refine_ls_weighting_details
'w=1/[\s^2^(Fo^2^)+(0.0600P)^2^+14.1200P] where P=(Fo^2^+2Fc^2^)/3'
_refine_ls_weighting_scheme      calc
_refine_ls_wR_factor_gt          0.1280
_refine_ls_wR_factor_ref         0.1336
_reflns_Friedel_coverage         0.000
_reflns_number_gt                69
_reflns_number_total             80
_reflns_threshold_expression     'I > 2\s(I)'
_cod_data_source_file            cg5b00390_si_002.cif
_cod_data_source_block           marseno_020
_cod_original_cell_volume        914.99(14)
_cod_database_code               4513580
_shelx_space_group_comment
;
The symmetry employed for this shelxl refinement is uniquely defined
by the following loop, which should always be used as a source of
symmetry information in preference to the above space-group names.
They are only intended as comments.
;
_olex2_refinement_description
;
;
_shelx_res_file
;
    marseno_020.res created by SHELXL-2014/7

TITL marseno_020_a.res in Fd-3m
CELL 0.41427 9.70819 9.70819 9.70819 90 90 90
ZERR 8 0.000511 0.000511 0.000511 0 0 0
LATT 4
SYMM 0.75-X,0.25-Y,0.5+Z
SYMM 0.25-X,0.5+Y,0.75-Z
SYMM 0.5+X,0.75-Y,0.25-Z
SYMM +Z,+X,+Y
SYMM 0.5+Z,0.75-X,0.25-Y
SYMM 0.75-Z,0.25-X,0.5+Y
SYMM 0.25-Z,0.5+X,0.75-Y
SYMM +Y,+Z,+X
SYMM 0.25-Y,0.5+Z,0.75-X
SYMM 0.5+Y,0.75-Z,0.25-X
SYMM 0.75-Y,0.25-Z,0.5+X
SYMM 0.75+Y,0.25+X,0.5-Z
SYMM -Y,-X,-Z
SYMM 0.25+Y,0.5-X,0.75+Z
SYMM 0.5-Y,0.75+X,0.25+Z
SYMM 0.75+X,0.25+Z,0.5-Y
SYMM 0.5-X,0.75+Z,0.25+Y
SYMM -X,-Z,-Y
SYMM 0.25+X,0.5-Z,0.75+Y
SYMM 0.75+Z,0.25+Y,0.5-X
SYMM 0.25+Z,0.5-Y,0.75+X
SYMM 0.5-Z,0.75+Y,0.25+X
SYMM -Z,-Y,-X

SFAC As O
DISP As 0.311 0.799 1882.762
DISP O 0.002 0.002 10.067
UNIT 32.00064 48

L.S. 10
PLAN  20
REM Old TITL marseno_020 in Fd-3m #227
BOND $H
LIST 6
fmap 2
ACTA
OMIT 2 10 10
OMIT 0 0 16
REM <HKL>E:/X-Ray_Data_Backup/ESRF_id09_2014_10/data/arsenolite/arseno_020/str
REM uct/olex2_marseno_020/marseno_020.hkl</HKL>

WGHT    0.060000   14.120003
FVAR       1.72299
AS1   1    0.255494    0.255494    0.255494    10.16667    0.01137    0.01137 =
         0.01137   -0.00058   -0.00058   -0.00058
O1    2    0.375000    0.375000    0.181488    10.25000    0.01777    0.01777 =
         0.00695    0.00000    0.00000    0.00268
HKLF 4

REM  marseno_020_a.res in Fd-3m
REM R1 =  0.0475 for      69 Fo > 4sig(Fo)  and  0.0510 for all      80 data
REM      8 parameters refined using      0 restraints

END

WGHT      0.0598     14.1216

REM Highest difference peak  0.608,  deepest hole -0.900,  1-sigma level  0.166
Q1    1   0.3750  0.3750  0.2582  10.25000  0.05    0.61
Q2    1   0.2014  0.1727  0.2495  11.00000  0.05    0.54
Q3    1   0.2936  0.4564  0.2936  10.16667  0.05    0.53
Q4    1   0.4256  0.3244  0.1120  10.50000  0.05    0.52
Q5    1   0.1597  0.2673  0.2673  10.50000  0.05    0.49
Q6    1   0.2288  0.1632  0.1632  10.50000  0.05    0.45
Q7    1   0.4136  0.3619  0.3364  10.50000  0.05    0.45
Q8    1   0.2476  0.2197  0.3022  11.00000  0.05    0.45
Q9    1   0.2800  0.3734  0.2222  11.00000  0.05    0.40
Q10   1   0.3177  0.1532  0.2683  11.00000  0.05    0.37
Q11   1   0.2744  0.3085  0.3085  10.50000  0.05    0.37
Q12   1   0.2317  0.2317  0.0183  10.16667  0.05    0.35
Q13   1   0.2402  0.3887  0.2402  10.50000  0.05    0.34
Q14   1   0.2684  0.0941  0.2176  11.00000  0.05    0.34
Q15   1   0.4006  0.4006  0.2608  10.50000  0.05    0.32
Q16   1   0.1250  0.1250  0.2003  10.25000  0.05    0.32
Q17   1   0.4615  0.2885  0.1405  10.50000  0.05    0.32
Q18   1   0.2285  0.2027  0.0927  11.00000  0.05    0.29
Q19   1   0.3956  0.4358  0.1592  11.00000  0.05    0.29
Q20   1   0.4293  0.3504  0.2308  11.00000  0.05    0.28
;
_shelx_res_checksum              46087
_shelx_hkl_file
;
  -1  -1  -1 58589.2 545.961   1
   1   1  -1 59152.6 1202.19   1
  -1  -1   1 61512.2 1148.61   1
   2   0  -2 7631.56 563.638   1
   2   2   0 6202.33 370.637   1
  -2  -2   0 6602.90 412.135   1
  -2   0   2 7088.61 495.983   1
  -1  -1   3 18.6915 33.3266   1
   3   1   1 10.2523 23.9970   1
   1   1  -3 8.42528 39.7118   1
   1   1   3 4.97194 5.11918   1
  -3  -1   3 60916.1 1922.48   1
  -3  -3  -1 63683.7 1380.58   1
   3   3  -1 62235.1 1667.85   1
  -3  -3   1 61962.1 1739.85   1
   1   3  -3 63083.2 1841.03   1
   3   1  -3 64236.3 2012.32   1
  -1  -3   3 63586.6 1885.78   1
   3   3   1 63002.8 1316.18   1
  -3  -3  -3 671.967 90.0280   1
   3   3  -3 712.183 193.972   1
  -3  -3   3 645.831 221.898   1
   2   0   4 19.8566 34.4538   1
   2   0  -4 7.45695 55.8291   1
   0  -2   4 54.4750 48.8981   1
   0   2  -4 1.68416 32.1863   1
  -2  -2  -4 29933.9 612.383   1
   2   2  -4 31632.5 1453.82   1
  -2  -2   4 30914.9 1423.66   1
   4   2   2 30954.3 903.160   1
  -4  -2   2 31404.6 1422.19   1
   4   2  -2 31879.2 1442.49   1
  -4  -4  -2 528.996 138.918   1
  -4  -2   4 311.220 192.238   1
   4   2  -4 653.115 240.110   1
  -2  -4   4 151.065 81.6576   1
   2   4  -4 474.727 190.732   1
  -4  -4   2 476.531 178.448   1
   4   2   4 260.719 34.2268   1
   4   4  -2 472.779 164.929   1
   1  -1   5 38.0528 65.7187   1
   1  -1  -5 35.0329 59.9762   1
  -1   1   5 63.8652 57.1415   1
  -1  -1  -5 46.5096 56.0702   1
   5   1  -1 47.3848 92.6616   1
   1   1   5 20.7962 46.8681   1
  -1  -1   5 64.6071 73.7381   1
   3   1   5 7782.20 429.859   1
  -5  -3   1 7976.15 744.126   1
  -3  -1   5 8318.40 853.190   1
   5   1  -3 9271.46 945.001   1
  -5  -3  -1 7219.40 571.292   1
   5   3  -1 8696.22 793.737   1
   3   1  -5 8152.31 856.102   1
  -5  -1   3 8443.26 825.321   1
  -1  -3   5 7476.83 774.673   1
   5   3   1 9583.18 743.289   1
   1   3  -5 7370.08 718.422   1
  -3  -3   5 475.366 188.521   1
  -5  -3   3 576.281 193.232   1
   3   3  -5 704.443 231.927   1
   3   5  -3 1023.82 272.863   1
   5   3  -3 440.222 203.433   1
  -3  -5   3 776.904 267.276   1
   5   3   3 970.390 154.945   1
  -5  -5  -1 105879. 2592.75   1
   5   5   1 102783. 2349.11   1
   5   5  -1 104657. 2728.26   1
   5   1  -5 98804.1 3530.15   1
  -5  -5   1 101312. 2844.48   1
  -5  -1   5 98854.6 3182.31   1
   5   5  -3 3982.97 609.251   1
  -3  -5   5 4333.30 733.417   1
   3   5  -5 3589.02 609.361   1
  -5  -5   3 4173.76 658.016   1
  -5  -5  -3 4558.93 467.787   1
  -5  -3   5 3599.05 635.874   1
   5   3  -5 3269.81 598.082   1
  -5  -5   5 8569.17 1049.73   1
   5   5  -5 9878.78 1073.41   1
   0   0  -6 8.11319 19.8119   1
   0   0   6 78.7551 104.915   1
   0   2  -6 2906.55 426.442   1
  -2   0   6 3144.10 491.733   1
   6   2   0 2862.48 441.813   1
   2   0  -6 3492.67 546.296   1
   2   0   6 3228.12 389.114   1
   0  -2   6 3047.94 491.859   1
   0  -2  -6 2618.30 368.686   1
   6   4   0 50.2799 112.926   1
  -4  -6   0 242.133 243.989   1
  -4   0   6 19.1891 93.3486   1
   4   2  -6 28.8437 103.943   1
  -6  -4  -2 4.61462 16.6295   1
  -6  -4   2 54.4296 100.869   1
   6   4   2 53.6744 66.8381   1
  -6  -2   4 14.0874 38.0746   1
   6   4  -2 21.7072 97.7813   1
   2   4  -6 5.02205 76.7821   1
  -2  -4   6 42.8329 80.5328   1
  -4  -4   6 6.24430 95.4690   1
  -6  -4   4 67.8221 88.9162   1
   4   6  -4 233.192 204.565   1
  -4  -6   4 83.4005 156.887   1
   6   4  -4 241.200 176.899   1
   4   4  -6 168.240 139.358   1
   6   6   0 25670.3 1435.16   1
  -6  -6   0 26757.8 1564.66   1
  -6  -6   4 229.739 182.218   1
   6   4  -6 420.901 262.433   1
   4   6  -6 690.550 261.869   1
   6   6  -4 1019.85 350.579   1
  -4  -6   6 801.844 341.427   1
  -6  -4   6 729.859 306.273   1
  -6  -6  -4 925.634 197.237   1
  -1  -1  -7 7094.17 642.504   1
  -1   1  -7 6323.14 640.804   1
   1   1  -7 7466.51 812.087   1
   1   1   7 7779.39 699.078   1
   1  -1  -7 6733.11 769.780   1
  -1  -1   7 6444.25 794.330   1
   1  -1   7 6872.57 711.755   1
  -1   1   7 6655.79 721.417   1
   3   1   7 10333.2 738.628   1
   7   3   1 7977.01 752.067   1
  -7  -3   1 9547.63 930.618   1
   3  -1  -7 8519.25 1014.58   1
  -3  -1   7 8371.49 1020.51   1
  -1  -3  -7 7217.77 608.802   1
   1   3  -7 8626.04 896.878   1
   3   1  -7 8749.51 1013.10   1
  -1  -3   7 8840.80 974.342   1
   7   3  -1 8278.36 861.956   1
   3   3  -7 92472.8 3185.01   1
   7   3   3 89664.1 2115.27   1
  -7  -3   3 90652.1 3154.69   1
  -3  -3   7 89425.1 3295.64   1
   7   3  -3 89018.3 3203.68   1
  -3  -3  -7 89786.2 1440.02   1
   5   1   7 1785.93 247.101   1
   7   5   1 2425.35 408.942   1
   5   1  -7 1782.99 501.039   1
  -5  -7   1 3293.69 788.342   1
  -7  -5   1 1532.34 383.067   1
   7   5  -1 2546.29 540.672   1
  -5  -1   7 1362.12 408.862   1
  -7  -5  -1 2203.92 412.517   1
  -5  -7  -1 3636.45 768.743   1
   7   5  -3 7269.47 973.740   1
  -7  -5  -3 7513.20 599.836   1
  -7  -3   5 8114.49 1031.13   1
   7   5   3 7574.78 569.505   1
   3   5  -7 7366.43 977.240   1
  -7  -5   3 7691.72 975.107   1
  -5  -3   7 6753.17 952.102   1
  -3  -5   7 7898.55 1062.45   1
   7   3   5 7097.93 448.488   1
   7   3  -5 7639.51 1024.19   1
  -3  -5  -7 6378.33 480.745   1
  -5  -7   3 10920.3 1405.43   1
   5   3  -7 7426.83 1040.25   1
   7   5  -5 5626.65 914.081   1
   5   5  -7 6378.29 955.552   1
   5   7  -5 6247.66 975.831   1
  -5  -5   7 5472.84 920.664   1
  -7  -5   5 5544.46 896.539   1
  -5  -7   5 6758.74 1125.05   1
   7   7  -1 40193.6 2110.97   1
   7   1  -7 39580.0 3087.48   1
  -7  -7  -1 39897.0 2044.95   1
  -7  -7   1 37744.8 2145.68   1
  -7  -1   7 40509.3 2642.95   1
  -7  -7  -3 22279.2 1337.18   1
  -7  -3   7 17660.7 1688.36   1
  -7  -7   3 19461.6 1687.73   1
   7   3  -7 18433.2 1807.29   1
   7   7  -3 22642.1 1798.92   1
   7   5  -7 6457.58 1042.54   1
   7   7  -5 9033.81 1217.19   1
  -7  -7  -5 5256.24 393.398   1
   5   7  -7 7421.48 1185.99   1
  -7  -5   7 6074.47 1026.24   1
  -7  -7   5 7189.04 1088.75   1
  -5  -7   7 8082.15 1329.79   1
  -5  -7  -7 4122.15 287.986   1
   0  -2  -8 9.86559 62.8222   1
   0  -2   8 117.700 113.951   1
   2   2  -8 20908.5 1544.28   1
   8   2  -2 21729.1 1760.91   1
  -2  -2  -8 21177.3 1005.59   1
   2  -2  -8 21289.4 1591.58   1
  -2  -2   8 20991.8 1608.48   1
   2   2   8 22473.7 1096.96   1
   8   2  -4 542.816 339.270   1
   2   4  -8 720.086 261.102   1
  -2  -4  -8 572.098 159.685   1
  -8  -2   4 330.807 177.710   1
   4   2   8 597.422 128.389   1
  -2  -4   8 96.5846 169.175   1
  -8  -4   2 275.159 173.612   1
   8   4  -2 262.836 127.946   1
   8   4   2 738.538 239.861   1
  -4  -2   8 318.720 220.964   1
   4   2  -8 518.790 279.373   1
  -8  -6   0 19.1753 60.4389   1
   8   6   0 225.592 161.230   1
   8   2  -6 4143.58 983.910   1
   8   6  -2 4547.05 772.915   1
  -8  -6  -2 3354.96 485.224   1
   6   2   8 2732.48 231.354   1
  -8  -2   6 3874.55 784.216   1
   6   2  -8 3907.93 850.519   1
   8   6   2 3762.59 479.683   1
  -8  -6   2 3747.56 678.979   1
  -6  -8   2 6822.03 1266.32   1
  -6  -2   8 3746.70 780.949   1
   4   6  -8 36.1142 92.5679   1
  -4  -6   8 460.151 335.636   1
   8   6  -4 365.508 233.657   1
   6   4  -8 168.195 215.736   1
  -6  -8   4 452.427 329.213   1
  -8  -4   6 74.9591 103.972   1
  -4  -6  -8 209.164 65.6891   1
  -6  -4   8 8.66553 31.2275   1
  -6  -8  -4 23.0815 25.2067   1
   8   4  -6 136.806 150.829   1
  -8  -6   4 469.862 321.142   1
  -6  -8  -6 553.628 188.855   1
   6   8  -6 282.849 195.695   1
   6   6  -8 292.689 247.679   1
   8   6  -6 131.676 177.902   1
  -8  -8   0 287745. 6186.96   1
  -8  -8   2 970.294 390.353   1
   8   2  -8 644.665 443.490   1
  -8  -8  -2 1773.98 453.047   1
   8   8  -2 1599.63 497.485   1
   1   1  -9 33490.6 1900.80   1
  -1  -1  -9 32967.3 1586.72   1
  -1   1   9 34142.8 1936.51   1
  -1  -1   9 35154.9 2126.24   1
   1   1   9 33777.2 1693.80   1
  -1   1  -9 33848.0 1741.19   1
   1  -1   9 33528.2 1887.81   1
   1  -1  -9 34090.5 1967.46   1
  -3   1   9 15144.5 1488.89   1
   1   3  -9 13800.5 1302.32   1
  -3  -1   9 14798.3 1516.50   1
   3   1   9 14256.6 1000.79   1
   1  -3  -9 13494.0 1395.55   1
   9   3   1 12138.3 1181.74   1
   9   3  -1 12605.2 1380.90   1
   3  -1  -9 11208.5 1207.27   1
  -1  -3   9 11871.3 1272.51   1
  -1  -3  -9 13366.7 1041.26   1
   3   1  -9 12551.7 1312.07   1
   3  -1   9 14431.7 1188.19   1
   1  -3   9 11247.9 1131.06   1
  -3  -3   9 119.978 127.669   1
   3   3  -9 345.391 170.398   1
   9   3  -3 219.861 200.591   1
   9   3   3 462.380 193.441   1
  -9  -5  -1 19861.2 1349.38   1
  -9  -5   1 21375.4 1666.60   1
  -5  -1   9 21523.1 1981.98   1
   5   1   9 18832.0 994.808   1
   5   1  -9 17814.4 1763.66   1
   9   5  -1 20773.4 1640.68   1
   9   5   1 20347.7 1481.25   1
   9   5   3 16957.6 1051.59   1
  -5  -3   9 13718.4 1574.04   1
  -9  -5   3 15888.4 1535.11   1
  -9  -3   5 16784.8 1705.74   1
   3   5  -9 16540.5 1635.80   1
   9   3   5 14806.3 924.694   1
   9   3  -5 16419.7 1894.64   1
  -3  -5   9 15072.9 1703.95   1
  -3  -5  -9 13319.1 790.219   1
   9   5  -3 15631.5 1511.94   1
   5   3  -9 15746.9 1732.10   1
   5   5  -9 61324.8 3177.95   1
  -9  -5   5 58911.6 3226.81   1
   9   5  -5 57595.7 3168.66   1
   7   1  -9 53.5949 186.230   1
  -7  -9   1 458.778 390.549   1
  -7  -9  -1 252.135 229.709   1
  -9  -7  -1 208.017 152.959   1
  -9  -7   1 157.748 155.220   1
   9   7   1 154.357 120.153   1
   9   3  -7 529.980 399.357   1
   9   3   7 970.007 172.697   1
   9   7  -3 575.960 305.288   1
  -7  -9  -3 128.934 107.326   1
  -9  -7  -3 871.066 214.758   1
  -9  -7   3 596.475 367.682   1
   7   3  -9 198.572 97.7349   1
  -7  -9  -5 4012.77 660.638   1
   9   7  -5 3134.37 748.771   1
  -9  -9  -1 36911.5 2367.01   1
  -9  -9   1 31295.6 2287.30   1
  -9  -9  -3 24632.2 1642.48   1
   9   9  -3 25222.3 2253.53   1
   0   0 -10 7.09505 50.7351   1
   0   0  10 123.846 146.060   1
  -2   0  10 4998.58 899.611   1
   0   2 -10 5185.39 787.246   1
   2   0  10 4808.98 694.049   1
   0  -2  10 4694.23 775.611   1
   0  -2 -10 4014.32 641.389   1
   2   0 -10 4730.94 825.576   1
   0  -4 -10 94.6743 181.685   1
  10   4   0 89.7615 138.630   1
   4   0  10 2.77072 21.1808   1
   4   0 -10 72.2293 151.663   1
   0  -4  10 13.9569 102.151   1
   4   2 -10 160.186 190.578   1
  10   4   2 163.003 161.474   1
   4   2  10 17.8946 41.6255   1
  -4  -2  10 27.8903 113.612   1
  -2  -4 -10 9.48279 46.2042   1
  10   4   4 69.5579 100.557   1
 -10  -4   4 51.8842 164.434   1
  -4  -4  10 119.322 130.451   1
   6   0 -10 1837.70 814.408   1
  10   6   0 2630.58 568.926   1
 -10  -6   0 2768.58 546.556   1
   6   2 -10 264061. 7376.43   1
  10   6  -4 6806.43 1083.06   1
 -10  -6   4 7799.66 1178.24   1
  10   4   6 6330.20 519.525   1
  10   6   4 7095.46 628.807   1
  -8 -10  -2 42.6387 108.106   1
 -10  -8  -2 55.7156 65.1177   1
 -10  -8   2 105.458 141.988   1
  -8 -10  -4 252.891 227.697   1
 -10 -10   0 18412.1 1818.76   1
 -10 -10  -2 200891. 6033.93   1
   1   1 -11 19838.9 1628.00   1
  -1  -1 -11 20536.0 1400.22   1
  -1   1  11 23899.8 1910.10   1
   1   1  11 20707.5 1517.30   1
  -1  -1  11 21131.1 1847.44   1
  -1   1 -11 20668.0 1547.83   1
   1  -1  11 19101.1 1627.26   1
   1  -1 -11 20809.3 1716.51   1
  -3  -1  11 18137.2 1850.74   1
   3   1  11 18574.2 1313.35   1
   1   3 -11 19408.8 1776.55   1
  -1  -3  11 14949.1 1613.82   1
   3  -1  11 17942.4 1507.63   1
   1  -3 -11 17006.9 1536.41   1
   3  -1 -11 16185.8 1585.41   1
   1  -3  11 17656.0 1719.45   1
  -1  -3 -11 17151.1 1325.33   1
   3   1 -11 17444.0 1779.72   1
   3   3 -11 20106.1 1821.87   1
  -3  -3  11 18497.2 1854.03   1
  -1  -5 -11 202.848 123.092   1
  11   5  -1 29.3951 129.737   1
  11   5   1 2.06659 38.6972   1
   5   1  11 8.01618 96.3518   1
  -3  -5 -11 11523.1 962.543   1
 -11  -5   3 10712.0 1504.63   1
   3   5 -11 11191.9 1531.71   1
  11   5  -3 8761.24 1267.16   1
  11   5   3 11738.5 1211.68   1
  11   5   5 4499.61 527.916   1
  11   7  -1 23905.9 1867.12   1
  11   7   1 23192.7 1564.42   1
 -11  -7  -1 21538.8 1516.75   1
 -11  -7   1 27413.5 2147.58   1
   7   1  11 23792.3 1262.07   1
  11   7  -3 34004.3 2367.23   1
  11   7   3 30722.0 1503.83   1
 -11  -9  -1 385.232 232.815   1
 -11  -9   1 302.955 140.159   1
  11   9  -1 802.906 363.694   1
 -11 -11  -1 10475.2 1694.49   1
   0   0 -12 230152. 5323.52   1
   0   0  12 231259. 5891.94   1
   2   0  12 141.296 139.730   1
   0  -2  12 332.479 263.839   1
   2   2 -12 4713.95 862.204   1
   2  -2  12 4128.98 835.789   1
  -2  -2 -12 6334.29 819.393   1
   2  -2 -12 4082.29 821.091   1
  -2  -2  12 3433.60 816.652   1
  -4   0  12 198610. 7505.73   1
   4   0  12 217135. 4664.41   1
   0  -4  12 216010. 6454.78   1
   0  -4 -12 216396. 4881.21   1
   4   0 -12 221129. 6236.80   1
   2   4 -12 397.423 262.858   1
   4   2 -12 433.057 343.099   1
  -2  -4 -12 427.788 183.587   1
  12   6  -2 32.8818 85.5019   1
  12   6   2 280.418 208.201   1
  12   8   0 143231. 4481.10   1
 -12  -8   0 152873. 4908.98   1
  12   8   2 1597.99 406.276   1
  12   8  -2 1190.07 472.458   1
   1  -1 -13 15434.7 1442.09   1
   1   1 -13 18637.7 1688.02   1
  -1   1  13 23121.9 2193.98   1
   1   1  13 21957.9 1815.46   1
  -1  -1 -13 21700.8 1659.26   1
  -1  -1  13 15755.2 1678.61   1
   1  -1  13 17139.0 1626.33   1
   1  -3  13 2128.26 736.500   1
   1   3 -13 4062.81 881.990   1
   3   1  13 4611.71 903.489   1
   3   1 -13 2322.05 638.790   1
   1  -3 -13 2255.04 524.167   1
  -1  -3 -13 2600.41 497.754   1
   3  -1  13 1585.19 488.108   1
   3  -1 -13 1484.18 562.067   1
  -1  -5 -13 10955.0 845.833   1
  13   7  -1 4845.81 939.093   1
  13   7   1 6393.06 1123.11   1
  13   9   1 24128.8 2029.92   1
   0   0 -14 65.7980 148.598   1
   2   0 -14 294.282 220.156   1
   0  -2 -14 117.398 31.3556   1
   2  -2  14 132525. 5199.25   1
   2  -2 -14 134558. 4961.21   1
   4   0  14 66.6373 33.9354   1
   1  -1 -15 2007.35 498.319   1
   1  -1  15 1992.25 562.747   1
   1  -3 -15 7433.95 932.294   1
  -1  -3 -15 8938.89 1012.64   1
   3  -1  15 8401.39 1118.02   1
   0   0 -16 152459. 5182.49   1
   0   0   0    0.00    0.00   0
TITL marseno_020 in Fd-3m
REM Fd-3m (#227 in standard setting)
CELL 0.41427   9.708190   9.708190   9.708190  90.0000  90.0000  90.0000
ZERR    4.00   0.000511   0.000511   0.000511   0.0000   0.0000   0.0000
LATT  4
SYMM -x+3/4,-y+1/4, z+1/2
SYMM -x+1/4, y+1/2,-z+3/4
SYMM  x+1/2,-y+3/4,-z+1/4
SYMM  z, x, y
SYMM  z+1/2,-x+3/4,-y+1/4
SYMM -z+3/4,-x+1/4, y+1/2
SYMM -z+1/4, x+1/2,-y+3/4
SYMM  y, z, x
SYMM -y+1/4, z+1/2,-x+3/4
SYMM  y+1/2,-z+3/4,-x+1/4
SYMM -y+3/4,-z+1/4, x+1/2
SYMM  y+3/4, x+1/4,-z+1/2
SYMM -y,-x,-z
SYMM  y+1/4,-x+1/2, z+3/4
SYMM -y+1/2, x+3/4, z+1/4
SYMM  x+3/4, z+1/4,-y+1/2
SYMM -x+1/2, z+3/4, y+1/4
SYMM -x,-z,-y
SYMM  x+1/4,-z+1/2, y+3/4
SYMM  z+3/4, y+1/4,-x+1/2
SYMM  z+1/4,-y+1/2, x+3/4
SYMM -z+1/2, y+3/4, x+1/4
SYMM -z,-y,-x
SFAC O As
UNIT 24.00 16.00
TREF
HKLF 4
END
;
_shelx_hkl_checksum              8408
_shelx_shelxl_version_number     2014/7
loop_
_space_group_symop_operation_xyz
'x, y, z'
'-x+3/4, -y+1/4, z+1/2'
'-x+1/4, y+1/2, -z+3/4'
'x+1/2, -y+3/4, -z+1/4'
'z, x, y'
'z+1/2, -x+3/4, -y+1/4'
'-z+3/4, -x+1/4, y+1/2'
'-z+1/4, x+1/2, -y+3/4'
'y, z, x'
'-y+1/4, z+1/2, -x+3/4'
'y+1/2, -z+3/4, -x+1/4'
'-y+3/4, -z+1/4, x+1/2'
'y+3/4, x+1/4, -z+1/2'
'-y, -x, -z'
'y+1/4, -x+1/2, z+3/4'
'-y+1/2, x+3/4, z+1/4'
'x+3/4, z+1/4, -y+1/2'
'-x+1/2, z+3/4, y+1/4'
'-x, -z, -y'
'x+1/4, -z+1/2, y+3/4'
'z+3/4, y+1/4, -x+1/2'
'z+1/4, -y+1/2, x+3/4'
'-z+1/2, y+3/4, x+1/4'
'-z, -y, -x'
'x, y+1/2, z+1/2'
'-x+3/4, -y+3/4, z+1'
'-x+1/4, y+1, -z+5/4'
'x+1/2, -y+5/4, -z+3/4'
'z, x+1/2, y+1/2'
'z+1/2, -x+5/4, -y+3/4'
'-z+3/4, -x+3/4, y+1'
'-z+1/4, x+1, -y+5/4'
'y, z+1/2, x+1/2'
'-y+1/4, z+1, -x+5/4'
'y+1/2, -z+5/4, -x+3/4'
'-y+3/4, -z+3/4, x+1'
'y+3/4, x+3/4, -z+1'
'-y, -x+1/2, -z+1/2'
'y+1/4, -x+1, z+5/4'
'-y+1/2, x+5/4, z+3/4'
'x+3/4, z+3/4, -y+1'
'-x+1/2, z+5/4, y+3/4'
'-x, -z+1/2, -y+1/2'
'x+1/4, -z+1, y+5/4'
'z+3/4, y+3/4, -x+1'
'z+1/4, -y+1, x+5/4'
'-z+1/2, y+5/4, x+3/4'
'-z, -y+1/2, -x+1/2'
'x+1/2, y, z+1/2'
'-x+5/4, -y+1/4, z+1'
'-x+3/4, y+1/2, -z+5/4'
'x+1, -y+3/4, -z+3/4'
'z+1/2, x, y+1/2'
'z+1, -x+3/4, -y+3/4'
'-z+5/4, -x+1/4, y+1'
'-z+3/4, x+1/2, -y+5/4'
'y+1/2, z, x+1/2'
'-y+3/4, z+1/2, -x+5/4'
'y+1, -z+3/4, -x+3/4'
'-y+5/4, -z+1/4, x+1'
'y+5/4, x+1/4, -z+1'
'-y+1/2, -x, -z+1/2'
'y+3/4, -x+1/2, z+5/4'
'-y+1, x+3/4, z+3/4'
'x+5/4, z+1/4, -y+1'
'-x+1, z+3/4, y+3/4'
'-x+1/2, -z, -y+1/2'
'x+3/4, -z+1/2, y+5/4'
'z+5/4, y+1/4, -x+1'
'z+3/4, -y+1/2, x+5/4'
'-z+1, y+3/4, x+3/4'
'-z+1/2, -y, -x+1/2'
'x+1/2, y+1/2, z'
'-x+5/4, -y+3/4, z+1/2'
'-x+3/4, y+1, -z+3/4'
'x+1, -y+5/4, -z+1/4'
'z+1/2, x+1/2, y'
'z+1, -x+5/4, -y+1/4'
'-z+5/4, -x+3/4, y+1/2'
'-z+3/4, x+1, -y+3/4'
'y+1/2, z+1/2, x'
'-y+3/4, z+1, -x+3/4'
'y+1, -z+5/4, -x+1/4'
'-y+5/4, -z+3/4, x+1/2'
'y+5/4, x+3/4, -z+1/2'
'-y+1/2, -x+1/2, -z'
'y+3/4, -x+1, z+3/4'
'-y+1, x+5/4, z+1/4'
'x+5/4, z+3/4, -y+1/2'
'-x+1, z+5/4, y+1/4'
'-x+1/2, -z+1/2, -y'
'x+3/4, -z+1, y+3/4'
'z+5/4, y+3/4, -x+1/2'
'z+3/4, -y+1, x+3/4'
'-z+1, y+5/4, x+1/4'
'-z+1/2, -y+1/2, -x'
'-x, -y, -z'
'x-3/4, y-1/4, -z-1/2'
'x-1/4, -y-1/2, z-3/4'
'-x-1/2, y-3/4, z-1/4'
'-z, -x, -y'
'-z-1/2, x-3/4, y-1/4'
'z-3/4, x-1/4, -y-1/2'
'z-1/4, -x-1/2, y-3/4'
'-y, -z, -x'
'y-1/4, -z-1/2, x-3/4'
'-y-1/2, z-3/4, x-1/4'
'y-3/4, z-1/4, -x-1/2'
'-y-3/4, -x-1/4, z-1/2'
'y, x, z'
'-y-1/4, x-1/2, -z-3/4'
'y-1/2, -x-3/4, -z-1/4'
'-x-3/4, -z-1/4, y-1/2'
'x-1/2, -z-3/4, -y-1/4'
'x, z, y'
'-x-1/4, z-1/2, -y-3/4'
'-z-3/4, -y-1/4, x-1/2'
'-z-1/4, y-1/2, -x-3/4'
'z-1/2, -y-3/4, -x-1/4'
'z, y, x'
'-x, -y+1/2, -z+1/2'
'x-3/4, y+1/4, -z'
'x-1/4, -y, z-1/4'
'-x-1/2, y-1/4, z+1/4'
'-z, -x+1/2, -y+1/2'
'-z-1/2, x-1/4, y+1/4'
'z-3/4, x+1/4, -y'
'z-1/4, -x, y-1/4'
'-y, -z+1/2, -x+1/2'
'y-1/4, -z, x-1/4'
'-y-1/2, z-1/4, x+1/4'
'y-3/4, z+1/4, -x'
'-y-3/4, -x+1/4, z'
'y, x+1/2, z+1/2'
'-y-1/4, x, -z-1/4'
'y-1/2, -x-1/4, -z+1/4'
'-x-3/4, -z+1/4, y'
'x-1/2, -z-1/4, -y+1/4'
'x, z+1/2, y+1/2'
'-x-1/4, z, -y-1/4'
'-z-3/4, -y+1/4, x'
'-z-1/4, y, -x-1/4'
'z-1/2, -y-1/4, -x+1/4'
'z, y+1/2, x+1/2'
'-x+1/2, -y, -z+1/2'
'x-1/4, y-1/4, -z'
'x+1/4, -y-1/2, z-1/4'
'-x, y-3/4, z+1/4'
'-z+1/2, -x, -y+1/2'
'-z, x-3/4, y+1/4'
'z-1/4, x-1/4, -y'
'z+1/4, -x-1/2, y-1/4'
'-y+1/2, -z, -x+1/2'
'y+1/4, -z-1/2, x-1/4'
'-y, z-3/4, x+1/4'
'y-1/4, z-1/4, -x'
'-y-1/4, -x-1/4, z'
'y+1/2, x, z+1/2'
'-y+1/4, x-1/2, -z-1/4'
'y, -x-3/4, -z+1/4'
'-x-1/4, -z-1/4, y'
'x, -z-3/4, -y+1/4'
'x+1/2, z, y+1/2'
'-x+1/4, z-1/2, -y-1/4'
'-z-1/4, -y-1/4, x'
'-z+1/4, y-1/2, -x-1/4'
'z, -y-3/4, -x+1/4'
'z+1/2, y, x+1/2'
'-x+1/2, -y+1/2, -z'
'x-1/4, y+1/4, -z-1/2'
'x+1/4, -y, z-3/4'
'-x, y-1/4, z-1/4'
'-z+1/2, -x+1/2, -y'
'-z, x-1/4, y-1/4'
'z-1/4, x+1/4, -y-1/2'
'z+1/4, -x, y-3/4'
'-y+1/2, -z+1/2, -x'
'y+1/4, -z, x-3/4'
'-y, z-1/4, x-1/4'
'y-1/4, z+1/4, -x-1/2'
'-y-1/4, -x+1/4, z-1/2'
'y+1/2, x+1/2, z'
'-y+1/4, x, -z-3/4'
'y, -x-1/4, -z-1/4'
'-x-1/4, -z+1/4, y-1/2'
'x, -z-1/4, -y-1/4'
'x+1/2, z+1/2, y'
'-x+1/4, z, -y-3/4'
'-z-1/4, -y+1/4, x-1/2'
'-z+1/4, y, -x-3/4'
'z, -y-1/4, -x-1/4'
'z+1/2, y+1/2, x'
loop_
_atom_site_label
_atom_site_type_symbol
_atom_site_fract_x
_atom_site_fract_y
_atom_site_fract_z
_atom_site_U_iso_or_equiv
_atom_site_adp_type
_atom_site_occupancy
_atom_site_site_symmetry_order
_atom_site_calc_flag
_atom_site_refinement_flags_posn
_atom_site_refinement_flags_adp
_atom_site_refinement_flags_occupancy
As1 As 0.25549(7) 0.25549(7) 0.25549(7) 0.0114(6) Uani 1 6 d S T P
O1 O 0.3750 0.3750 0.1815(5) 0.0142(12) Uani 1 4 d S T P
loop_
_atom_site_aniso_label
_atom_site_aniso_U_11
_atom_site_aniso_U_22
_atom_site_aniso_U_33
_atom_site_aniso_U_23
_atom_site_aniso_U_13
_atom_site_aniso_U_12
As1 0.0114(6) 0.0114(6) 0.0114(6) -0.00058(14) -0.00058(14) -0.00058(14)
O1 0.0178(17) 0.0178(17) 0.007(2) 0.000 0.000 0.003(2)
loop_
_atom_type_symbol
_atom_type_description
_atom_type_scat_dispersion_real
_atom_type_scat_dispersion_imag
_atom_type_scat_source
As As 0.3110 0.7990 'International Tables Vol C Tables 4.2.6.8 and 6.1.1.4'
O O 0.0020 0.0020 'International Tables Vol C Tables 4.2.6.8 and 6.1.1.4'
loop_
_geom_angle_atom_site_label_1
_geom_angle_atom_site_label_2
_geom_angle_atom_site_label_3
_geom_angle
_geom_angle_site_symmetry_1
_geom_angle_site_symmetry_3
O1 As1 O1 95.74(18) . 9
O1 As1 O1 95.74(18) . 5
O1 As1 O1 95.74(18) 9 5
As1 O1 As1 132.7(3) 26_554 .
loop_
_geom_bond_atom_site_label_1
_geom_bond_atom_site_label_2
_geom_bond_distance
_geom_bond_site_symmetry_2
As1 O1 1.791(2) .
As1 O1 1.791(2) 9
As1 O1 1.791(2) 5
O1 As1 1.791(2) 26_554
