#------------------------------------------------------------------------------
#$Date: 2015-09-04 08:12:49 +0300 (Fri, 04 Sep 2015) $
#$Revision: 153928 $
#$URL: svn://www.crystallography.net/cod/cif/4/51/35/4513583.cif $
#------------------------------------------------------------------------------
#
# This file is available in the Crystallography Open Database (COD),
# http://www.crystallography.net/
#
# All data on this site have been placed in the public domain by the
# contributors.
#
data_4513583
loop_
_publ_author_name
'Gu\'nka, Piotr A.'
'Dziubek, Kamil F.'
'G\/ladysiak, Andrzej'
'Dranka, Maciej'
'Piechota, Jacek'
'Hanfland, Michael'
'Katrusiak, Andrzej'
'Zachara, Janusz'
_publ_section_title
;
 Compressed Arsenolite As4O6and Its Helium Clathrate As4O6&#x00B7;2He
;
_journal_issue                   8
_journal_name_full               'Crystal Growth &amp; Design'
_journal_page_first              3740
_journal_paper_doi               10.1021/acs.cgd.5b00390
_journal_volume                  15
_journal_year                    2015
_chemical_formula_moiety         'As4 O6'
_chemical_formula_sum            'As4 O6'
_chemical_formula_weight         395.68
_chemical_name_common            arsenolite
_space_group_crystal_system      cubic
_space_group_IT_number           227
_space_group_name_Hall           '-F 4vw 2vw 3'
_space_group_name_H-M_alt        'F d -3 m'
_symmetry_space_group_name_Hall  '-F 4vw 2vw 3'
_symmetry_space_group_name_H-M   'F d -3 m :2'
_atom_sites_solution_primary     direct
_audit_creation_date             2014-10-15
_audit_creation_method
;
Olex2 1.2-beta
(compiled 2014.09.19 svn.r3010 for OlexSys, GUI svn.r4874)
;
_cell_angle_alpha                90
_cell_angle_beta                 90
_cell_angle_gamma                90
_cell_formula_units_Z            8
_cell_length_a                   9.5367(5)
_cell_length_b                   9.5367(5)
_cell_length_c                   9.5367(5)
_cell_measurement_pressure       2.748e7(5)
_cell_measurement_reflns_used    195
_cell_measurement_temperature    293(2)
_cell_measurement_theta_max      20.1140
_cell_measurement_theta_min      2.1430
_cell_volume                     867.35(8)
_computing_cell_refinement
;
CrysAlisPro, Agilent Technologies,
Version 1.171.37.34 (release 22-05-2014 CrysAlis171 .NET)
(compiled May 22 2014,16:03:01)
;
_computing_data_collection
;
CrysAlisPro, Agilent Technologies,
Version 1.171.37.34 (release 22-05-2014 CrysAlis171 .NET)
(compiled May 22 2014,16:03:01)
;
_computing_data_reduction
;
CrysAlisPro, Agilent Technologies,
Version 1.171.37.34 (release 22-05-2014 CrysAlis171 .NET)
(compiled May 22 2014,16:03:01)
;
_computing_molecular_graphics    'Olex2 (Dolomanov et al., 2009)'
_computing_publication_material  'Olex2 (Dolomanov et al., 2009)'
_computing_structure_refinement  'ShelXL (Sheldrick, 2008)'
_computing_structure_solution    'ShelXT (Sheldrick, 2008)'
_diffrn_ambient_environment      He
_diffrn_ambient_pressure         2.748e7(5)
_diffrn_ambient_temperature      293(2)
_diffrn_detector                 'CCD plate'
_diffrn_measured_fraction_theta_full 0.765
_diffrn_measured_fraction_theta_max 0.581
_diffrn_measurement_details
;
  1 phi    148.00  212.00   0.5000    1.0000
omega____ theta____ kappa____ phi______ frames
   0.0000    0.0000    0.0000     -     128
;
_diffrn_measurement_device       'abstract diffractometer'
_diffrn_measurement_device_type
'MAR-CrysAlisPro-abstract goniometer: imported MAR images'
_diffrn_measurement_method       '\p scans'
_diffrn_orient_matrix_UB_11      -0.0351997000
_diffrn_orient_matrix_UB_12      -0.0007914000
_diffrn_orient_matrix_UB_13      0.0254665000
_diffrn_orient_matrix_UB_21      -0.0174559000
_diffrn_orient_matrix_UB_22      -0.0307487000
_diffrn_orient_matrix_UB_23      -0.0252184000
_diffrn_orient_matrix_UB_31      0.0184553000
_diffrn_orient_matrix_UB_32      -0.0307012000
_diffrn_orient_matrix_UB_33      0.0245654000
_diffrn_radiation_monochromator  synchrotron
_diffrn_radiation_probe          x-ray
_diffrn_radiation_wavelength     0.41427
_diffrn_reflns_av_R_equivalents  0.0266
_diffrn_reflns_av_unetI/netI     0.0217
_diffrn_reflns_laue_measured_fraction_full 0.765
_diffrn_reflns_laue_measured_fraction_max 0.581
_diffrn_reflns_limit_h_max       10
_diffrn_reflns_limit_h_min       -9
_diffrn_reflns_limit_k_max       15
_diffrn_reflns_limit_k_min       -16
_diffrn_reflns_limit_l_max       12
_diffrn_reflns_limit_l_min       -13
_diffrn_reflns_number            368
_diffrn_reflns_point_group_measured_fraction_full 0.765
_diffrn_reflns_point_group_measured_fraction_max 0.581
_diffrn_reflns_theta_full        14.392
_diffrn_reflns_theta_max         20.127
_diffrn_reflns_theta_min         2.156
_diffrn_source                   synchrotron
_exptl_absorpt_coefficient_mu    7.002
_exptl_absorpt_correction_T_max  1.00000
_exptl_absorpt_correction_T_min  0.39476
_exptl_absorpt_correction_type   multi-scan
_exptl_absorpt_process_details
;
CrysAlisPro, Agilent Technologies,
Version 1.171.37.34 (release 22-05-2014 CrysAlis171 .NET)
(compiled May 22 2014,16:03:01)
Empirical absorption correction using spherical harmonics,
 implemented in SCALE3 ABSPACK scaling algorithm.
;
_exptl_crystal_density_diffrn    6.060
_exptl_crystal_description       block
_exptl_crystal_F_000             1440
_exptl_crystal_size_max          0.065
_exptl_crystal_size_mid          0.04
_exptl_crystal_size_min          0.02
_refine_diff_density_max         0.431
_refine_diff_density_min         -0.605
_refine_diff_density_rms         0.132
_refine_ls_extinction_method     none
_refine_ls_goodness_of_fit_ref   1.318
_refine_ls_hydrogen_treatment    undef
_refine_ls_matrix_type           full
_refine_ls_number_parameters     8
_refine_ls_number_reflns         75
_refine_ls_number_restraints     0
_refine_ls_restrained_S_all      1.318
_refine_ls_R_factor_all          0.0534
_refine_ls_R_factor_gt           0.0467
_refine_ls_shift/su_max          0.000
_refine_ls_shift/su_mean         0.000
_refine_ls_structure_factor_coef Fsqd
_refine_ls_weighting_details
'w=1/[\s^2^(Fo^2^)+(0.0620P)^2^+4.0070P] where P=(Fo^2^+2Fc^2^)/3'
_refine_ls_weighting_scheme      calc
_refine_ls_wR_factor_gt          0.1171
_refine_ls_wR_factor_ref         0.1287
_reflns_Friedel_coverage         0.000
_reflns_number_gt                64
_reflns_number_total             75
_reflns_threshold_expression     'I > 2\s(I)'
_cod_data_source_file            cg5b00390_si_002.cif
_cod_data_source_block           marseno_023
_cod_original_cell_volume        867.36(14)
_cod_database_code               4513583
_shelx_space_group_comment
;
The symmetry employed for this shelxl refinement is uniquely defined
by the following loop, which should always be used as a source of
symmetry information in preference to the above space-group names.
They are only intended as comments.
;
_olex2_refinement_description
;
;
_shelx_res_file
;
    marseno_023.res created by SHELXL-2014/7

TITL marseno_023_a.res in Fd-3m
CELL 0.41427 9.536726 9.536726 9.536726 90 90 90
ZERR 8 0.000501 0.000501 0.000501 0 0 0
LATT 4
SYMM 0.75-X,0.25-Y,0.5+Z
SYMM 0.25-X,0.5+Y,0.75-Z
SYMM 0.5+X,0.75-Y,0.25-Z
SYMM +Z,+X,+Y
SYMM 0.5+Z,0.75-X,0.25-Y
SYMM 0.75-Z,0.25-X,0.5+Y
SYMM 0.25-Z,0.5+X,0.75-Y
SYMM +Y,+Z,+X
SYMM 0.25-Y,0.5+Z,0.75-X
SYMM 0.5+Y,0.75-Z,0.25-X
SYMM 0.75-Y,0.25-Z,0.5+X
SYMM 0.75+Y,0.25+X,0.5-Z
SYMM -Y,-X,-Z
SYMM 0.25+Y,0.5-X,0.75+Z
SYMM 0.5-Y,0.75+X,0.25+Z
SYMM 0.75+X,0.25+Z,0.5-Y
SYMM 0.5-X,0.75+Z,0.25+Y
SYMM -X,-Z,-Y
SYMM 0.25+X,0.5-Z,0.75+Y
SYMM 0.75+Z,0.25+Y,0.5-X
SYMM 0.25+Z,0.5-Y,0.75+X
SYMM 0.5-Z,0.75+Y,0.25+X
SYMM -Z,-Y,-X

SFAC O As
DISP As 0.311 0.799 1882.762
DISP O 0.002 0.002 10.067
UNIT 48 32

L.S. 10
PLAN  20
REM Old TITL marseno_023 in Fd-3m #227
BOND $H
LIST 6
fmap 2
ACTA
OMIT 0 0 16
REM <HKL>E:/X-Ray_Data_Backup/ESRF_id09_2014_10/data/arsenolite/arseno_023/str
REM uct/olex2_marseno_023/marseno_023.hkl</HKL>

WGHT    0.062000    4.007000
FVAR       1.82687
AS1   2    0.253133    0.253133    0.253133    10.16667    0.01030    0.01030 =
         0.01030   -0.00031   -0.00031   -0.00031
O1    1    0.375000    0.375000    0.179402    10.25000    0.01546    0.01546 =
         0.01269    0.00000    0.00000    0.00056
HKLF 4

REM  marseno_023_a.res in Fd-3m
REM R1 =  0.0467 for      64 Fo > 4sig(Fo)  and  0.0534 for all      75 data
REM      8 parameters refined using      0 restraints

END

WGHT      0.0624      4.0053

REM Highest difference peak  0.431,  deepest hole -0.605,  1-sigma level  0.132
Q1    1   0.2320  0.2009  0.2009  10.50000  0.05    0.43
Q2    1   0.2547  0.2547  0.0411  10.50000  0.05    0.42
Q3    1   0.3750  0.3750  0.2434  10.25000  0.05    0.38
Q4    1   0.4593  0.2598  0.2598  10.50000  0.05    0.37
Q5    1   0.2452  0.2136  0.2991  11.00000  0.05    0.35
Q6    1   0.2456  0.0848  0.2095  11.00000  0.05    0.33
Q7    1   0.1981  0.1600  0.1600  10.50000  0.05    0.31
Q8    1   0.4153  0.3650  0.1357  11.00000  0.05    0.31
Q9    1   0.3087  0.3889  0.2642  11.00000  0.05    0.30
Q10   1   0.3056  0.2585  0.2585  10.50000  0.05    0.30
Q11   1   0.4593  0.3441  0.2197  11.00000  0.05    0.28
Q12   1   0.4000  0.4503  0.1079  11.00000  0.05    0.25
Q13   1   0.3301  0.4199  0.1061  10.50000  0.05    0.24
Q14   1   0.2242  0.0912  0.2921  11.00000  0.05    0.23
Q15   1   0.2711  0.2054  0.1127  11.00000  0.05    0.22
Q16   1   0.3742  0.2751  0.0825  11.00000  0.05    0.22
Q17   1   0.2991  0.3680  0.0611  11.00000  0.05    0.22
Q18   1   0.2457  0.3079  0.1128  11.00000  0.05    0.21
Q19   1   0.2973  0.2973  0.2973  10.16667  0.05    0.20
Q20   1   0.4531  0.2704  0.1462  11.00000  0.05    0.20
;
_shelx_res_checksum              27261
_shelx_hkl_file
;
   1  -1   1 43672.8 362.422   1
   1   1   1 43843.1 728.416   1
   0  -2   0 2.69657 10.5505   1
   2   0   2 10475.4 425.961   1
  -2   0  -2 9846.94 387.367   1
   0  -2  -2 10331.9 514.172   1
   1   1   3 11.0625 36.7504   1
  -1   1  -3 11.7248 14.4323   1
   1  -3   1 42.6596 17.7193   1
  -1  -1  -3 13.1072 27.9543   1
  -1   3  -1 74.8984 28.0277   1
   1   3   1 14.0266 27.9210   1
  -1  -3  -1 28.8081 35.8013   1
   3  -1   3 47901.6 971.451   1
   1   3   3 46388.5 1299.90   1
  -3   1  -3 47680.7 921.127   1
  -1  -3  -3 48093.6 1334.18   1
   3   3   1 47926.6 1292.48   1
   3   1   3 47734.3 1203.11   1
  -3  -1  -3 47520.4 1182.57   1
  -3  -3  -1 47128.8 1260.33   1
   3  -3   3 9510.18 263.718   1
   3   3   3 8990.78 569.143   1
  -3  -3  -3 9223.35 567.563   1
   0   4   2 11.9963 49.5305   1
  -2   0  -4 16.7551 37.8134   1
   0  -4  -2 7.00327 19.8080   1
   0   4  -2 1.29618 17.9730   1
  -2  -4   0 11.9765 29.6359   1
   2   4   0 28.4619 27.4809   1
  -2  -2  -4 31841.8 1060.00   1
   2   4   2 32544.9 1114.38   1
   2  -4   2 30915.6 488.537   1
  -2  -4  -2 31858.0 1080.55   1
   2   2   4 31742.8 1088.91   1
  -2   2  -4 31869.9 691.346   1
   4   4   2 14.2221 53.1017   1
   4   2   4 1.37706 30.8833   1
  -4  -2  -4 18.9574 34.7098   1
   4  -2   4 21.3674 28.1712   1
  -2   4  -4 15.4887 6.87464   1
   2   4   4 40.9375 66.3967   1
   1  -5  -1 3105.68 312.676   1
  -1   5  -1 3098.78 256.647   1
  -1  -5  -1 2894.19 315.544   1
   1   5   1 2931.45 326.814   1
   1  -5   1 3244.11 264.725   1
  -1   5   1 3155.64 314.739   1
   1   5  -1 2837.62 263.719   1
   3  -1   5 4227.39 329.304   1
  -1  -3  -5 5589.25 574.941   1
   3   1   5 4261.92 409.716   1
  -3  -5  -1 4255.74 412.025   1
  -3   1  -5 4234.97 328.221   1
  -1  -5  -3 5398.67 503.394   1
   3   5   1 4014.28 421.078   1
  -3  -1  -5 4462.01 409.724   1
   1   5   3 5339.12 521.147   1
   1   3   5 5468.14 513.580   1
  -1   5  -3 4495.49 239.430   1
  -5  -3  -3 1320.70 281.951   1
  -3  -5  -3 1017.78 215.602   1
   5   3   3 1504.96 314.865   1
   3   5   3 672.621 177.085   1
  -3   3  -5 1012.78 114.489   1
   3   3   5 733.005 191.511   1
  -3  -3  -5 992.505 201.536   1
  -1  -5  -5 64520.6 2084.13   1
  -5   1  -5 65780.5 1527.89   1
   1   5   5 65037.4 1959.48   1
  -5  -1  -5 65734.6 1688.71   1
   5  -1   5 67226.0 1555.07   1
   5   1   5 64957.2 1723.22   1
  -5  -5  -3 90.2251 97.1429   1
   5  -3   5 342.311 92.8479   1
  -5  -3  -5 332.254 143.221   1
   5   5   3 167.458 123.666   1
   3   5   5 19.1249 68.3339   1
  -3  -5  -5 89.0718 62.5900   1
   5   3   5 172.388 107.822   1
   5   5   5 8.63487 61.3021   1
  -5  -5  -5 55.5335 45.1232   1
   0  -6   0 38.5632 36.6055   1
   0  -6  -2 3631.52 398.210   1
   2   6   0 3684.33 405.852   1
   2  -6   0 3263.03 316.079   1
  -2  -6   0 3573.09 373.140   1
  -2   0  -6 3940.58 416.584   1
   0   6  -2 3453.40 294.456   1
   0   6   2 3506.86 392.826   1
   0  -6  -4 85.2206 68.5908   1
   6   0   4 114.423 115.574   1
   4   0   6 43.8126 77.8805   1
   4  -2   6 13.7754 51.4565   1
   4   6   2 58.7771 92.9909   1
   6   2   4 94.3172 69.0134   1
  -4  -2  -6 44.9346 80.7317   1
  -2  -4  -6 113.268 110.509   1
  -4  -6  -2 53.0359 55.1427   1
   2   4   6 17.2403 44.6939   1
  -6  -4  -4 112.868 82.3230   1
  -4  -4  -6 85.2383 114.330   1
   4   6   4 82.0676 79.4229   1
   6   4   4 13.3004 64.1341   1
  -4  -6  -4 81.3923 112.270   1
   4   4   6 13.1451 61.1573   1
  -6   0  -6 17605.1 916.396   1
   6   0   6 17473.1 919.586   1
   6   4   6 2382.90 390.956   1
  -6  -4  -6 2511.31 419.142   1
  -6  -6  -4 2087.76 383.598   1
   6  -4   6 2401.88 244.076   1
  -4  -6  -6 3026.56 523.230   1
   6   6   4 2270.98 440.383   1
   4   6   6 2177.00 420.861   1
  -1  -7  -1 2810.66 366.188   1
   1  -7   1 2765.45 298.811   1
  -1  -7   1 2219.67 311.369   1
  -1   7  -1 2972.61 312.640   1
   1   7  -1 2617.93 310.744   1
   1  -7  -1 2860.55 345.559   1
   1   7   1 2834.23 372.432   1
  -1   7   1 2763.72 334.592   1
  -3  -7  -1 1205.30 257.627   1
   3   7   1 918.636 244.035   1
   1  -7  -3 536.761 190.984   1
   1   7   3 643.021 226.353   1
  -1   7  -3 1021.37 151.080   1
   3   1   7 1223.28 246.626   1
   3  -7   1 637.467 138.490   1
  -3   1  -7 1120.75 213.023   1
  -1  -7  -3 551.832 183.632   1
  -3  -1  -7 1091.86 220.851   1
  -3  -7  -3 56182.3 1907.82   1
   3   7   3 55972.2 1988.83   1
   3   3   7 55310.9 1851.75   1
  -3   3  -7 55315.8 1247.64   1
  -3  -3  -7 54702.0 1867.96   1
  -1  -7  -5 647.022 223.244   1
   7  -1   5 1514.48 264.402   1
  -1   7  -5 1352.17 168.214   1
   5  -1   7 1115.15 218.761   1
   7   1   5 1785.72 368.974   1
   1   7   5 904.572 255.359   1
  -5   1  -7 1043.59 185.092   1
  -5  -1  -7 1068.13 227.692   1
   5   1   7 831.001 206.769   1
  -5  -3  -7 4016.29 512.589   1
  -5   3  -7 4155.02 333.771   1
  -5  -7  -3 3480.85 491.253   1
   5   3   7 3853.53 520.336   1
   5   7   3 3473.87 527.690   1
   3   7   5 4216.48 615.006   1
   3   5   7 4484.26 583.014   1
   5  -7   3 3391.99 246.176   1
  -3   5  -7 3560.34 224.520   1
   5  -3   7 3503.86 317.371   1
  -3  -7  -5 4206.64 599.006   1
  -3  -5  -7 4493.56 596.047   1
   7   3   5 5308.14 669.756   1
  -5  -5  -7 4206.23 589.892   1
  -5  -7  -5 5005.94 665.342   1
  -7  -5  -5 4657.36 696.308   1
   7   5   5 4148.16 663.110   1
   5   5   7 4792.90 664.584   1
   5   7   5 5147.51 697.739   1
  -7  -1  -7 19740.9 1139.90   1
   7   1   7 19193.1 1104.07   1
   7  -1   7 20393.0 1046.99   1
   1   7   7 17945.7 1277.50   1
  -1  -7  -7 18126.4 1443.26   1
  -7  -3  -7 3611.49 525.183   1
  -3  -7  -7 2010.68 485.727   1
   3   7   7 2909.89 518.489   1
   7   3   7 3416.46 515.110   1
   7  -3   7 3401.73 374.282   1
  -5  -7  -7 1793.25 444.985   1
   7   7   5 801.285 409.081   1
  -7  -5  -7 2238.00 462.875   1
   7  -5   7 2560.44 257.354   1
   7   5   7 2114.15 438.262   1
  -7  -7  -5 1708.38 411.600   1
   5   7   7 3405.50 617.677   1
  -2  -8   0 53.1818 82.5507   1
   2   8   0 126.256 119.455   1
   0  -8  -2 52.7923 61.2023   1
  -2  -8  -2 22854.3 1185.52   1
   2  -8   2 21994.4 767.776   1
   2  -8  -2 21980.3 1193.35   1
  -2   8  -2 22701.8 766.371   1
   4   8   2 126.506 133.521   1
  -4  -2  -8 34.5498 70.8744   1
  -2   8  -4 30.7488 22.5154   1
  -4  -8  -2 84.8176 71.7898   1
   4  -8   2 79.7395 50.8174   1
   6   0   8 22.8045 89.1187   1
   8   0   6 56.7407 66.4143   1
  -6   0  -8 10.8187 47.9092   1
  -6  -2  -8 3307.44 454.188   1
  -6   2  -8 3568.85 371.486   1
  -2  -8  -6 2995.30 542.636   1
   6  -2   8 3235.38 366.783   1
   2   8   6 3235.20 532.652   1
  -2   8  -6 2434.72 159.913   1
   8   2   6 3128.28 534.654   1
   2   6   8 3335.10 550.258   1
   6   2   8 3934.73 547.605   1
  -2  -6  -8 3674.21 647.368   1
   8   4   6 77.1245 162.816   1
   8  -4   6 18.8485 50.0506   1
  -4  -6  -8 19.3565 149.071   1
   6   4   8 145.931 166.253   1
   6  -8   4 4.07018 8.29961   1
  -6  -6  -8 150.309 140.882   1
  -2  -8  -8 382.858 228.532   1
   8  -2   8 111.856 52.5034   1
   8   2   8 95.1925 141.303   1
  -1  -9  -1 16217.5 991.943   1
   1  -9   1 16297.4 844.473   1
  -1   9   1 14486.0 882.290   1
  -1  -9   1 15375.8 946.397   1
  -1   9  -1 15319.4 806.881   1
   1   9   1 15979.1 1031.77   1
   1   9  -1 15177.8 885.883   1
   1  -9  -1 14252.8 911.613   1
  -3  -9  -1 5792.34 650.145   1
   3   9   1 4791.07 576.039   1
   1   9   3 6231.37 692.459   1
  -1   9  -3 5248.36 429.955   1
   3  -9  -1 4422.49 554.402   1
  -3   1  -9 4492.01 494.995   1
  -3  -1  -9 4322.38 554.453   1
   1  -9  -3 5038.93 587.781   1
   3  -9   1 4758.74 442.931   1
   1   9  -3 6173.91 598.154   1
  -1  -9  -3 5043.14 652.692   1
   3   9  -1 5667.27 619.408   1
  -3   3  -9 811.320 183.292   1
  -3  -9  -3 1185.78 302.981   1
   3   9   3 1224.43 306.489   1
  -3  -3  -9 758.925 300.425   1
   1   9   5 4398.99 615.119   1
   5  -1   9 4395.84 484.954   1
  -1   9  -5 4082.94 329.609   1
  -1  -9  -5 4122.41 631.825   1
  -5  -1  -9 5722.54 658.757   1
  -5   1  -9 5271.18 553.482   1
   5   1   9 4683.52 577.171   1
  -5   3  -9 7465.56 506.998   1
  -5  -9  -3 7078.35 795.264   1
   3   5   9 6395.98 741.881   1
   5   3   9 7958.99 816.722   1
  -3   5  -9 6399.48 459.905   1
  -3  -5  -9 5978.26 803.014   1
   5   9   3 7029.23 802.656   1
   5  -9   3 5633.59 380.753   1
  -5  -3  -9 7949.51 837.271   1
   3   9   5 6350.29 869.416   1
  -3  -9  -5 7456.09 916.107   1
  -5  -9  -5 33940.1 1925.64   1
   5   5   9 34325.8 1864.89   1
  -5  -5  -9 32053.3 1858.56   1
  -7  -1  -9 42.0826 70.7848   1
   9   1   7 125.244 128.667   1
  -7   1  -9 216.275 135.804   1
  -7  -3  -9 316.841 148.608   1
   9  -3   7 66.5505 79.9182   1
   9   3   7 968.371 332.585   1
  -3  -7  -9 1539.80 599.449   1
  -3   7  -9 511.651 88.6535   1
   7  -3   9 889.464 207.562   1
   7   3   9 955.513 299.701   1
  -3  -9  -7 617.901 133.344   1
  -7  -5  -9 666.671 307.657   1
   9  -5   7 523.725 147.177   1
   9  -1   9 13057.1 966.890   1
   9   1   9 12530.3 1006.61   1
  -9  -3  -9 9535.61 1066.94   1
   9  -3   9 10938.0 824.013   1
   0  10   0 30.7649 69.2948   1
   0 -10   0 80.4300 58.9149   1
   0  10   2 3012.25 444.992   1
  -2 -10   0 3202.24 494.699   1
   0  10  -2 2670.07 371.627   1
   0 -10  -2 2769.61 459.957   1
   2 -10   0 2967.48 408.482   1
   2  10   0 2950.54 447.048   1
  -4   0 -10 4.11792 63.4320   1
   0  10   4 235.056 154.229   1
  -2 -10  -4 100.483 152.690   1
   4  10   2 76.5487 101.091   1
  -4   2 -10 168.164 131.042   1
  -4  -2 -10 12.8137 103.766   1
  -4 -10  -2 357.437 174.205   1
   4 -10   2 153.682 72.4608   1
  -4  -4 -10 118.604 170.711   1
  -4   4 -10 115.759 107.551   1
   4   4  10 33.2382 117.615   1
   4  10   4 3.63730 145.870   1
  -6   0 -10 6129.50 629.685   1
   6   0  10 6852.63 678.211   1
   0 -10  -6 7107.19 971.728   1
  -6  -4 -10 4109.46 647.054   1
  -6   4 -10 4656.49 432.085   1
  -4   6 -10 3234.67 277.309   1
   8   0  10 120.036 59.2134   1
  -8   0 -10 63.9720 128.302   1
  -8  -2 -10 121.735 86.6000   1
   8  -2  10 162.260 137.404   1
   8   2  10 170.365 117.355   1
  10   0  10 7821.80 807.426   1
  10  -2  10 205627. 4177.38   1
  -1 -11  -1 9670.19 841.983   1
   1 -11   1 9208.15 698.193   1
  -1  11   1 9828.37 792.297   1
  -1  11  -1 10280.8 763.167   1
   1  11   1 9021.75 849.440   1
   1  11  -1 8741.31 788.592   1
   1 -11  -1 9780.54 848.654   1
  -3 -11  -1 8151.23 886.247   1
   1  11   3 6333.02 764.351   1
  -1  11  -3 7407.45 617.127   1
   3  11   1 5267.18 657.494   1
   1  11  -3 5270.34 591.712   1
   3 -11  -1 6724.41 683.398   1
   3  11  -1 5831.59 723.331   1
   1 -11  -3 5537.94 689.435   1
   3 -11   1 6345.28 600.546   1
  -1 -11  -3 6663.54 804.712   1
  -3 -11  -3 5471.97 724.529   1
   3  11   3 5272.57 753.679   1
   5 -11   1 626.299 201.212   1
  -5  -1 -11 503.592 224.343   1
  -5   1 -11 211.229 146.397   1
  -1 -11  -5 129.443 153.720   1
  -1  11  -5 165.672 78.3121   1
   5   3  11 3435.57 600.297   1
  -5  -3 -11 4075.05 643.230   1
  -5   3 -11 5457.74 627.991   1
  -5   5 -11 3142.52 310.547   1
  -7  -1 -11 9674.59 872.350   1
  -7   1 -11 9071.48 748.918   1
   7  -1  11 10185.3 842.195   1
   7   1  11 9428.22 912.918   1
  -7  -3 -11 16582.3 1267.39   1
  -7   3 -11 17122.1 936.638   1
   9  -1  11 53.5464 94.8536   1
  -9  -1 -11 209.794 154.892   1
   0  12   0 263563. 4305.20   1
   0 -12  -2 57.8686 105.914   1
   2 -12   0 12.8966 74.2256   1
  -2 -12   0 3.23497 145.938   1
   0  12  -2 2.16074 62.4368   1
  -2 -12  -2 4957.54 680.192   1
   2 -12   2 5696.85 509.199   1
   2  12   2 5875.33 763.793   1
   2  12  -2 5806.74 733.066   1
   2 -12  -2 5314.33 672.313   1
   0  12  -4 275755. 4072.46   1
   4  12   0 275254. 5671.18   1
   4 -12   0 275319. 4453.75   1
   0 -12  -4 277489. 5480.47   1
  -4 -12  -2 252.503 148.603   1
   4 -12   2 8.99042 56.9410   1
  -6   0 -12 218.587 202.003   1
  -6   2 -12 482.031 241.913   1
  -6  -2 -12 48.3964 79.0706   1
  -8   0 -12 187559. 4009.08   1
   8   0  12 188179. 4047.18   1
   1 -13  -1 6998.82 752.610   1
  -1 -13  -1 7099.40 802.180   1
   1 -13   1 7762.20 709.723   1
  -1  13   1 6863.99 761.956   1
  -1  13  -1 8547.32 800.384   1
   1  13   1 6723.99 774.888   1
   1  13  -1 6080.11 735.360   1
  -1  13  -3 422.221 192.891   1
  -1 -13  -3 193.236 184.950   1
  -3 -13  -1 340.580 291.336   1
   3 -13  -1 143.193 142.035   1
   3 -13   1 172.123 142.965   1
   1 -13  -3 87.7033 138.176   1
   1  13  -3 221.554 152.561   1
   3  13  -1 392.295 314.332   1
  -7  -1 -13 1735.29 439.137   1
  -7   1 -13 1081.51 344.504   1
  -9   1 -13 9004.54 972.106   1
   0  14   0 243.634 191.098   1
   0 -14   0 217.619 105.973   1
   0  14  -2 2.61603 107.674   1
   2 -14   0 5.15528 101.000   1
   2  14  -2 193117. 4983.90   1
   2 -14  -2 195454. 4675.37   1
   1 -15  -1 285.911 181.874   1
  -1  15  -1 96.5454 193.990   1
   1  15  -1 371.131 180.411   1
   1 -15   1 65.1532 152.023   1
   3 -15  -1 6208.02 898.552   1
   0 -16   0 251866. 5986.72   1
   2 -16   0 54.5719 201.686   1
   0   0   0    0.00    0.00   0
TITL marseno_023 in Fd-3m
REM Fd-3m (#227 in standard setting)
CELL 0.41427   9.536726   9.536726   9.536726  90.0000  90.0000  90.0000
ZERR    4.00   0.000501   0.000501   0.000501   0.0000   0.0000   0.0000
LATT  4
SYMM -x+3/4,-y+1/4, z+1/2
SYMM -x+1/4, y+1/2,-z+3/4
SYMM  x+1/2,-y+3/4,-z+1/4
SYMM  z, x, y
SYMM  z+1/2,-x+3/4,-y+1/4
SYMM -z+3/4,-x+1/4, y+1/2
SYMM -z+1/4, x+1/2,-y+3/4
SYMM  y, z, x
SYMM -y+1/4, z+1/2,-x+3/4
SYMM  y+1/2,-z+3/4,-x+1/4
SYMM -y+3/4,-z+1/4, x+1/2
SYMM  y+3/4, x+1/4,-z+1/2
SYMM -y,-x,-z
SYMM  y+1/4,-x+1/2, z+3/4
SYMM -y+1/2, x+3/4, z+1/4
SYMM  x+3/4, z+1/4,-y+1/2
SYMM -x+1/2, z+3/4, y+1/4
SYMM -x,-z,-y
SYMM  x+1/4,-z+1/2, y+3/4
SYMM  z+3/4, y+1/4,-x+1/2
SYMM  z+1/4,-y+1/2, x+3/4
SYMM -z+1/2, y+3/4, x+1/4
SYMM -z,-y,-x
SFAC O As
UNIT 24.00 16.00
TREF
HKLF 4
END
;
_shelx_hkl_checksum              98472
_shelx_shelxl_version_number     2014/7
loop_
_space_group_symop_operation_xyz
'x, y, z'
'-x+3/4, -y+1/4, z+1/2'
'-x+1/4, y+1/2, -z+3/4'
'x+1/2, -y+3/4, -z+1/4'
'z, x, y'
'z+1/2, -x+3/4, -y+1/4'
'-z+3/4, -x+1/4, y+1/2'
'-z+1/4, x+1/2, -y+3/4'
'y, z, x'
'-y+1/4, z+1/2, -x+3/4'
'y+1/2, -z+3/4, -x+1/4'
'-y+3/4, -z+1/4, x+1/2'
'y+3/4, x+1/4, -z+1/2'
'-y, -x, -z'
'y+1/4, -x+1/2, z+3/4'
'-y+1/2, x+3/4, z+1/4'
'x+3/4, z+1/4, -y+1/2'
'-x+1/2, z+3/4, y+1/4'
'-x, -z, -y'
'x+1/4, -z+1/2, y+3/4'
'z+3/4, y+1/4, -x+1/2'
'z+1/4, -y+1/2, x+3/4'
'-z+1/2, y+3/4, x+1/4'
'-z, -y, -x'
'x, y+1/2, z+1/2'
'-x+3/4, -y+3/4, z+1'
'-x+1/4, y+1, -z+5/4'
'x+1/2, -y+5/4, -z+3/4'
'z, x+1/2, y+1/2'
'z+1/2, -x+5/4, -y+3/4'
'-z+3/4, -x+3/4, y+1'
'-z+1/4, x+1, -y+5/4'
'y, z+1/2, x+1/2'
'-y+1/4, z+1, -x+5/4'
'y+1/2, -z+5/4, -x+3/4'
'-y+3/4, -z+3/4, x+1'
'y+3/4, x+3/4, -z+1'
'-y, -x+1/2, -z+1/2'
'y+1/4, -x+1, z+5/4'
'-y+1/2, x+5/4, z+3/4'
'x+3/4, z+3/4, -y+1'
'-x+1/2, z+5/4, y+3/4'
'-x, -z+1/2, -y+1/2'
'x+1/4, -z+1, y+5/4'
'z+3/4, y+3/4, -x+1'
'z+1/4, -y+1, x+5/4'
'-z+1/2, y+5/4, x+3/4'
'-z, -y+1/2, -x+1/2'
'x+1/2, y, z+1/2'
'-x+5/4, -y+1/4, z+1'
'-x+3/4, y+1/2, -z+5/4'
'x+1, -y+3/4, -z+3/4'
'z+1/2, x, y+1/2'
'z+1, -x+3/4, -y+3/4'
'-z+5/4, -x+1/4, y+1'
'-z+3/4, x+1/2, -y+5/4'
'y+1/2, z, x+1/2'
'-y+3/4, z+1/2, -x+5/4'
'y+1, -z+3/4, -x+3/4'
'-y+5/4, -z+1/4, x+1'
'y+5/4, x+1/4, -z+1'
'-y+1/2, -x, -z+1/2'
'y+3/4, -x+1/2, z+5/4'
'-y+1, x+3/4, z+3/4'
'x+5/4, z+1/4, -y+1'
'-x+1, z+3/4, y+3/4'
'-x+1/2, -z, -y+1/2'
'x+3/4, -z+1/2, y+5/4'
'z+5/4, y+1/4, -x+1'
'z+3/4, -y+1/2, x+5/4'
'-z+1, y+3/4, x+3/4'
'-z+1/2, -y, -x+1/2'
'x+1/2, y+1/2, z'
'-x+5/4, -y+3/4, z+1/2'
'-x+3/4, y+1, -z+3/4'
'x+1, -y+5/4, -z+1/4'
'z+1/2, x+1/2, y'
'z+1, -x+5/4, -y+1/4'
'-z+5/4, -x+3/4, y+1/2'
'-z+3/4, x+1, -y+3/4'
'y+1/2, z+1/2, x'
'-y+3/4, z+1, -x+3/4'
'y+1, -z+5/4, -x+1/4'
'-y+5/4, -z+3/4, x+1/2'
'y+5/4, x+3/4, -z+1/2'
'-y+1/2, -x+1/2, -z'
'y+3/4, -x+1, z+3/4'
'-y+1, x+5/4, z+1/4'
'x+5/4, z+3/4, -y+1/2'
'-x+1, z+5/4, y+1/4'
'-x+1/2, -z+1/2, -y'
'x+3/4, -z+1, y+3/4'
'z+5/4, y+3/4, -x+1/2'
'z+3/4, -y+1, x+3/4'
'-z+1, y+5/4, x+1/4'
'-z+1/2, -y+1/2, -x'
'-x, -y, -z'
'x-3/4, y-1/4, -z-1/2'
'x-1/4, -y-1/2, z-3/4'
'-x-1/2, y-3/4, z-1/4'
'-z, -x, -y'
'-z-1/2, x-3/4, y-1/4'
'z-3/4, x-1/4, -y-1/2'
'z-1/4, -x-1/2, y-3/4'
'-y, -z, -x'
'y-1/4, -z-1/2, x-3/4'
'-y-1/2, z-3/4, x-1/4'
'y-3/4, z-1/4, -x-1/2'
'-y-3/4, -x-1/4, z-1/2'
'y, x, z'
'-y-1/4, x-1/2, -z-3/4'
'y-1/2, -x-3/4, -z-1/4'
'-x-3/4, -z-1/4, y-1/2'
'x-1/2, -z-3/4, -y-1/4'
'x, z, y'
'-x-1/4, z-1/2, -y-3/4'
'-z-3/4, -y-1/4, x-1/2'
'-z-1/4, y-1/2, -x-3/4'
'z-1/2, -y-3/4, -x-1/4'
'z, y, x'
'-x, -y+1/2, -z+1/2'
'x-3/4, y+1/4, -z'
'x-1/4, -y, z-1/4'
'-x-1/2, y-1/4, z+1/4'
'-z, -x+1/2, -y+1/2'
'-z-1/2, x-1/4, y+1/4'
'z-3/4, x+1/4, -y'
'z-1/4, -x, y-1/4'
'-y, -z+1/2, -x+1/2'
'y-1/4, -z, x-1/4'
'-y-1/2, z-1/4, x+1/4'
'y-3/4, z+1/4, -x'
'-y-3/4, -x+1/4, z'
'y, x+1/2, z+1/2'
'-y-1/4, x, -z-1/4'
'y-1/2, -x-1/4, -z+1/4'
'-x-3/4, -z+1/4, y'
'x-1/2, -z-1/4, -y+1/4'
'x, z+1/2, y+1/2'
'-x-1/4, z, -y-1/4'
'-z-3/4, -y+1/4, x'
'-z-1/4, y, -x-1/4'
'z-1/2, -y-1/4, -x+1/4'
'z, y+1/2, x+1/2'
'-x+1/2, -y, -z+1/2'
'x-1/4, y-1/4, -z'
'x+1/4, -y-1/2, z-1/4'
'-x, y-3/4, z+1/4'
'-z+1/2, -x, -y+1/2'
'-z, x-3/4, y+1/4'
'z-1/4, x-1/4, -y'
'z+1/4, -x-1/2, y-1/4'
'-y+1/2, -z, -x+1/2'
'y+1/4, -z-1/2, x-1/4'
'-y, z-3/4, x+1/4'
'y-1/4, z-1/4, -x'
'-y-1/4, -x-1/4, z'
'y+1/2, x, z+1/2'
'-y+1/4, x-1/2, -z-1/4'
'y, -x-3/4, -z+1/4'
'-x-1/4, -z-1/4, y'
'x, -z-3/4, -y+1/4'
'x+1/2, z, y+1/2'
'-x+1/4, z-1/2, -y-1/4'
'-z-1/4, -y-1/4, x'
'-z+1/4, y-1/2, -x-1/4'
'z, -y-3/4, -x+1/4'
'z+1/2, y, x+1/2'
'-x+1/2, -y+1/2, -z'
'x-1/4, y+1/4, -z-1/2'
'x+1/4, -y, z-3/4'
'-x, y-1/4, z-1/4'
'-z+1/2, -x+1/2, -y'
'-z, x-1/4, y-1/4'
'z-1/4, x+1/4, -y-1/2'
'z+1/4, -x, y-3/4'
'-y+1/2, -z+1/2, -x'
'y+1/4, -z, x-3/4'
'-y, z-1/4, x-1/4'
'y-1/4, z+1/4, -x-1/2'
'-y-1/4, -x+1/4, z-1/2'
'y+1/2, x+1/2, z'
'-y+1/4, x, -z-3/4'
'y, -x-1/4, -z-1/4'
'-x-1/4, -z+1/4, y-1/2'
'x, -z-1/4, -y-1/4'
'x+1/2, z+1/2, y'
'-x+1/4, z, -y-3/4'
'-z-1/4, -y+1/4, x-1/2'
'-z+1/4, y, -x-3/4'
'z, -y-1/4, -x-1/4'
'z+1/2, y+1/2, x'
loop_
_atom_site_label
_atom_site_type_symbol
_atom_site_fract_x
_atom_site_fract_y
_atom_site_fract_z
_atom_site_U_iso_or_equiv
_atom_site_adp_type
_atom_site_occupancy
_atom_site_site_symmetry_order
_atom_site_calc_flag
_atom_site_refinement_flags_posn
_atom_site_refinement_flags_adp
_atom_site_refinement_flags_occupancy
As1 As 0.25313(5) 0.25313(5) 0.25313(5) 0.0103(6) Uani 1 6 d S T P
O1 O 0.3750 0.3750 0.1794(4) 0.0145(9) Uani 1 4 d S T P
loop_
_atom_site_aniso_label
_atom_site_aniso_U_11
_atom_site_aniso_U_22
_atom_site_aniso_U_33
_atom_site_aniso_U_23
_atom_site_aniso_U_13
_atom_site_aniso_U_12
As1 0.0103(6) 0.0103(6) 0.0103(6) -0.00031(10) -0.00031(10) -0.00031(10)
O1 0.0155(12) 0.0155(12) 0.0127(16) 0.000 0.000 0.0006(14)
loop_
_atom_type_symbol
_atom_type_description
_atom_type_scat_dispersion_real
_atom_type_scat_dispersion_imag
_atom_type_scat_source
O O 0.0020 0.0020 'International Tables Vol C Tables 4.2.6.8 and 6.1.1.4'
As As 0.3110 0.7990 'International Tables Vol C Tables 4.2.6.8 and 6.1.1.4'
loop_
_geom_angle_atom_site_label_1
_geom_angle_atom_site_label_2
_geom_angle_atom_site_label_3
_geom_angle
_geom_angle_site_symmetry_1
_geom_angle_site_symmetry_3
O1 As1 O1 95.09(14) . 9
O1 As1 O1 95.09(14) 9 5
O1 As1 O1 95.09(14) . 5
As1 O1 As1 133.7(2) . 26_554
loop_
_geom_bond_atom_site_label_1
_geom_bond_atom_site_label_2
_geom_bond_distance
_geom_bond_site_symmetry_2
As1 O1 1.7877(15) .
As1 O1 1.7877(15) 5
As1 O1 1.7877(15) 9
O1 As1 1.7877(15) 26_554
