#------------------------------------------------------------------------------
#$Date: 2015-09-04 08:12:49 +0300 (Fri, 04 Sep 2015) $
#$Revision: 153928 $
#$URL: svn://www.crystallography.net/cod/cif/4/51/35/4513570.cif $
#------------------------------------------------------------------------------
#
# This file is available in the Crystallography Open Database (COD),
# http://www.crystallography.net/
#
# All data on this site have been placed in the public domain by the
# contributors.
#
data_4513570
loop_
_publ_author_name
'Gu\'nka, Piotr A.'
'Dziubek, Kamil F.'
'G\/ladysiak, Andrzej'
'Dranka, Maciej'
'Piechota, Jacek'
'Hanfland, Michael'
'Katrusiak, Andrzej'
'Zachara, Janusz'
_publ_section_title
;
 Compressed Arsenolite As4O6and Its Helium Clathrate As4O6&#x00B7;2He
;
_journal_issue                   8
_journal_name_full               'Crystal Growth &amp; Design'
_journal_page_first              3740
_journal_paper_doi               10.1021/acs.cgd.5b00390
_journal_volume                  15
_journal_year                    2015
_chemical_formula_moiety         'As4 O6'
_chemical_formula_sum            'As4 O6'
_chemical_formula_weight         395.69
_chemical_name_common            arsenolite
_space_group_crystal_system      cubic
_space_group_IT_number           227
_space_group_name_Hall           '-F 4vw 2vw 3'
_space_group_name_H-M_alt        'F d -3 m'
_symmetry_space_group_name_Hall  '-F 4vw 2vw 3'
_symmetry_space_group_name_H-M   'F d -3 m :2'
_atom_sites_solution_primary     direct
_audit_creation_date             2014-10-15
_audit_creation_method
;
Olex2 1.2-beta
(compiled 2014.09.19 svn.r3010 for OlexSys, GUI svn.r4874)
;
_cell_angle_alpha                90
_cell_angle_beta                 90
_cell_angle_gamma                90
_cell_formula_units_Z            8
_cell_length_a                   10.60074(13)
_cell_length_b                   10.60074(13)
_cell_length_c                   10.60074(13)
_cell_measurement_pressure       2.46e6(5)
_cell_measurement_reflns_used    412
_cell_measurement_temperature    293(2)
_cell_measurement_theta_max      20.7410
_cell_measurement_theta_min      1.9390
_cell_volume                     1191.27(3)
_computing_cell_refinement
;
CrysAlisPro, Agilent Technologies,
Version 1.171.37.34 (release 22-05-2014 CrysAlis171 .NET)
(compiled May 22 2014,16:03:01)
;
_computing_data_collection
;
CrysAlisPro, Agilent Technologies,
Version 1.171.37.34 (release 22-05-2014 CrysAlis171 .NET)
(compiled May 22 2014,16:03:01)
;
_computing_data_reduction
;
CrysAlisPro, Agilent Technologies,
Version 1.171.37.34 (release 22-05-2014 CrysAlis171 .NET)
(compiled May 22 2014,16:03:01)
;
_computing_molecular_graphics    'Olex2 (Dolomanov et al., 2009)'
_computing_publication_material  'Olex2 (Dolomanov et al., 2009)'
_computing_structure_refinement  'ShelXL (Sheldrick, 2008)'
_computing_structure_solution    'ShelXT (Sheldrick, 2008)'
_diffrn_ambient_environment      He
_diffrn_ambient_pressure         2.46e6(5)
_diffrn_ambient_temperature      293(2)
_diffrn_detector                 'CCD plate'
_diffrn_measured_fraction_theta_full 0.900
_diffrn_measured_fraction_theta_max 0.659
_diffrn_measurement_details
;
  1 phi    148.00  212.00   0.5000    1.0000
omega____ theta____ kappa____ phi______ frames
   0.0000    0.0000    0.0000     -     128
;
_diffrn_measurement_device       'abstract diffractometer'
_diffrn_measurement_device_type
'MAR-CrysAlisPro-abstract goniometer: imported MAR images'
_diffrn_measurement_method       '\p scans'
_diffrn_orient_matrix_UB_11      0.0008113000
_diffrn_orient_matrix_UB_12      0.0228495000
_diffrn_orient_matrix_UB_13      0.0316798000
_diffrn_orient_matrix_UB_21      0.0289114000
_diffrn_orient_matrix_UB_22      -0.0216711000
_diffrn_orient_matrix_UB_23      0.0148900000
_diffrn_orient_matrix_UB_31      0.0262953000
_diffrn_orient_matrix_UB_32      0.0231363000
_diffrn_orient_matrix_UB_33      -0.0173571000
_diffrn_radiation_monochromator  synchrotron
_diffrn_radiation_probe          x-ray
_diffrn_radiation_wavelength     0.41427
_diffrn_reflns_av_R_equivalents  0.0300
_diffrn_reflns_av_unetI/netI     0.0202
_diffrn_reflns_laue_measured_fraction_full 0.900
_diffrn_reflns_laue_measured_fraction_max 0.659
_diffrn_reflns_limit_h_max       18
_diffrn_reflns_limit_h_min       -17
_diffrn_reflns_limit_k_max       14
_diffrn_reflns_limit_k_min       -15
_diffrn_reflns_limit_l_max       10
_diffrn_reflns_limit_l_min       -12
_diffrn_reflns_number            590
_diffrn_reflns_point_group_measured_fraction_full 0.900
_diffrn_reflns_point_group_measured_fraction_max 0.659
_diffrn_reflns_theta_full        14.392
_diffrn_reflns_theta_max         20.725
_diffrn_reflns_theta_min         3.168
_diffrn_source                   synchrotron
_exptl_absorpt_coefficient_mu    5.098
_exptl_absorpt_correction_T_max  1.00000
_exptl_absorpt_correction_T_min  0.69298
_exptl_absorpt_correction_type   multi-scan
_exptl_absorpt_process_details
;
CrysAlisPro, Agilent Technologies,
Version 1.171.37.34 (release 22-05-2014 CrysAlis171 .NET)
(compiled May 22 2014,16:03:01)
Empirical absorption correction using spherical harmonics,
 implemented in SCALE3 ABSPACK scaling algorithm.
;
_exptl_crystal_density_diffrn    4.412
_exptl_crystal_description       block
_exptl_crystal_F_000             1440
_exptl_crystal_size_max          0.065
_exptl_crystal_size_mid          0.04
_exptl_crystal_size_min          0.02
_refine_diff_density_max         0.719
_refine_diff_density_min         -0.657
_refine_diff_density_rms         0.195
_refine_ls_extinction_method     none
_refine_ls_goodness_of_fit_ref   1.206
_refine_ls_hydrogen_treatment    undef
_refine_ls_matrix_type           full
_refine_ls_number_parameters     8
_refine_ls_number_reflns         120
_refine_ls_number_restraints     0
_refine_ls_restrained_S_all      1.206
_refine_ls_R_factor_all          0.0299
_refine_ls_R_factor_gt           0.0261
_refine_ls_shift/su_max          0.000
_refine_ls_shift/su_mean         0.000
_refine_ls_structure_factor_coef Fsqd
_refine_ls_weighting_details
'w=1/[\s^2^(Fo^2^)+(0.0390P)^2^+13.9220P] where P=(Fo^2^+2Fc^2^)/3'
_refine_ls_weighting_scheme      calc
_refine_ls_wR_factor_gt          0.0676
_refine_ls_wR_factor_ref         0.0686
_reflns_Friedel_coverage         0.000
_reflns_number_gt                117
_reflns_number_total             120
_reflns_threshold_expression     'I > 2\s(I)'
_cod_data_source_file            cg5b00390_si_002.cif
_cod_data_source_block           marseno_010
_cod_original_cell_volume        1191.26(4)
_cod_database_code               4513570
_shelx_space_group_comment
;
The symmetry employed for this shelxl refinement is uniquely defined
by the following loop, which should always be used as a source of
symmetry information in preference to the above space-group names.
They are only intended as comments.
;
_olex2_refinement_description
;
;
_shelx_res_file
;
    marseno_010.res created by SHELXL-2014/7

TITL marseno_010_a.res in Fd-3m
CELL 0.41427 10.600739 10.600739 10.600739 90 90 90
ZERR 8 0.000133 0.000133 0.000133 0 0 0
LATT 4
SYMM 0.75-X,0.25-Y,0.5+Z
SYMM 0.25-X,0.5+Y,0.75-Z
SYMM 0.5+X,0.75-Y,0.25-Z
SYMM +Z,+X,+Y
SYMM 0.5+Z,0.75-X,0.25-Y
SYMM 0.75-Z,0.25-X,0.5+Y
SYMM 0.25-Z,0.5+X,0.75-Y
SYMM +Y,+Z,+X
SYMM 0.25-Y,0.5+Z,0.75-X
SYMM 0.5+Y,0.75-Z,0.25-X
SYMM 0.75-Y,0.25-Z,0.5+X
SYMM 0.75+Y,0.25+X,0.5-Z
SYMM -Y,-X,-Z
SYMM 0.25+Y,0.5-X,0.75+Z
SYMM 0.5-Y,0.75+X,0.25+Z
SYMM 0.75+X,0.25+Z,0.5-Y
SYMM 0.5-X,0.75+Z,0.25+Y
SYMM -X,-Z,-Y
SYMM 0.25+X,0.5-Z,0.75+Y
SYMM 0.75+Z,0.25+Y,0.5-X
SYMM 0.25+Z,0.5-Y,0.75+X
SYMM 0.5-Z,0.75+Y,0.25+X
SYMM -Z,-Y,-X

SFAC As O
DISP As 0.311 0.799 1882.762
DISP O 0.002 0.002 10.067
UNIT 32.00064 48

L.S. 10
PLAN  20
REM Old TITL marseno_010 in Fd-3m #227
BOND $H
LIST 6
fmap 2
ACTA
REM <HKL>E:/X-Ray_Data_Backup/ESRF_id09_2014_10/data/arsenolite/arseno_010/str
REM uct/olex2_marseno_010/marseno_010.hkl</HKL>

WGHT    0.039000   13.922000
FVAR       0.82665
AS1   1    0.266983    0.266983    0.266983    10.16667    0.01108    0.01108 =
         0.01108   -0.00118   -0.00118   -0.00118
O1    2    0.375000    0.375000    0.193523    10.25000    0.01404    0.01404 =
         0.01097    0.00000    0.00000   -0.00036
HKLF 4

REM  marseno_010_a.res in Fd-3m
REM R1 =  0.0261 for     117 Fo > 4sig(Fo)  and  0.0299 for all     120 data
REM      8 parameters refined using      0 restraints

END

WGHT      0.0389     14.0036

REM Highest difference peak  0.719,  deepest hole -0.657,  1-sigma level  0.195
Q1    1   0.3750  0.3750  0.0739  10.25000  0.05    0.72
Q2    1   0.2842  0.2842  0.1728  10.50000  0.05    0.70
Q3    1   0.4410  0.3090  0.2038  10.50000  0.05    0.54
Q4    1   0.5000  0.5000  0.0000  10.08333  0.05    0.53
Q5    1   0.2614  0.1859  0.1859  10.50000  0.05    0.52
Q6    1   0.2030  0.1715  0.2345  11.00000  0.05    0.47
Q7    1   0.4299  0.3963  0.2298  11.00000  0.05    0.41
Q8    1   0.3798  0.4259  0.2603  11.00000  0.05    0.40
Q9    1   0.4764  0.3122  0.2055  11.00000  0.05    0.40
Q10   1   0.4077  0.4077  0.1176  10.50000  0.05    0.38
Q11   1   0.2209  0.2209  0.0749  10.50000  0.05    0.37
Q12   1   0.1404  0.2234  0.2234  10.50000  0.05    0.35
Q13   1   0.3750  0.3750  0.2895  10.25000  0.05    0.34
Q14   1   0.3619  0.4837  0.1844  11.00000  0.05    0.34
Q15   1   0.2453  0.2934  0.3494  11.00000  0.05    0.33
Q16   1   0.3540  0.2767  0.2767  10.50000  0.05    0.33
Q17   1   0.4081  0.2976  0.2023  11.00000  0.05    0.31
Q18   1   0.2530  0.0837  0.1983  11.00000  0.05    0.30
Q19   1   0.3497  0.4003  0.2929  10.50000  0.05    0.30
Q20   1   0.4350  0.4350  0.0303  10.50000  0.05    0.28
;
_shelx_res_checksum              67030
_shelx_hkl_file
;
   2   0   0  159.09   16.55   1
  -2   0   0    1.26    2.24   1
   2  -2   0   60.35   14.22   1
   0   2  -2   53.55   11.57   1
   0  -2   2   67.31   10.85   1
  -2   2   0   69.63   14.15   1
  -3   1  -1 1264.41   68.23   1
  -1   3  -1 1285.20   64.42   1
   1  -3   1 1082.95   62.96   1
  -3  -1   1 1081.34   41.59   1
   3  -1   1 1123.83   66.18   1
   3  -1  -1 1294.68   64.94   1
   3   1  -1 1382.15   45.55   1
   3  -3   150092.20  594.12   1
   3  -1   352713.18  564.60   1
   1   3  -360151.96  477.38   1
  -1   3  -354480.17  543.02   1
  -1  -3   351812.40  439.47   1
  -3   1  -351758.74  564.31   1
  -3   3  -153567.76  585.32   1
   1  -3   357204.58  548.13   1
   3  -3   321516.44  366.22   1
  -3   3  -322224.40  378.61   1
  -4   2   0    4.85    5.32   1
   4   0   2    3.56    7.23   1
  -4  -2   0    9.62    5.88   1
  -4   0  -2    2.06    6.53   1
  -2   4  -216711.28  306.60   1
  -2   2  -415288.66  287.92   1
   4  -2   216050.66  308.00   1
  -4   2  -216617.03  313.19   1
   2  -4   216004.87  305.90   1
  -2  -4   214875.88  194.37   1
   4   2  -215018.96  159.32   1
   2   4  -410035.91  171.61   1
   2  -4   4 9628.80  241.75   1
  -4   4  -2 9294.98  260.71   1
  -4   2  -4 9131.52  249.17   1
   4  -2   4 9583.40  252.94   1
  -2   4  -4 9590.55  248.86   1
   4  -4   2 9248.15  262.07   1
  -5  -1  -120165.83  309.63   1
  -5   1   120668.98  335.85   1
   5  -1   121451.91  356.18   1
   5   1  -117516.77  262.16   1
   5   1   120133.58  306.39   1
  -5  -1   117758.93  267.86   1
   5  -1  -120461.49  337.80   1
  -5   1  -120760.01  354.91   1
   1  -5   120036.79  344.72   1
   1   5  -3 9066.12  186.97   1
  -1  -5   3 9104.18  193.59   1
  -5   1  -3 8399.41  243.23   1
   1  -5   3 8952.61  228.86   1
   5  -1   3 8723.21  242.73   1
   5  -3   1 8932.22  257.52   1
  -5   3  -1 9557.38  260.54   1
   3  -5   1 8489.28  253.61   1
  -3   5  -1 9227.85  257.17   1
  -5  -3   1 8650.15  143.30   1
  -1   5  -3 8928.17  226.97   1
  -5   3  -3  990.35   95.46   1
   3  -5   3 1183.99   97.46   1
   3  -3   5  993.00   85.42   1
  -3   5  -3 1045.61   91.31   1
  -3   3  -5 1253.26   91.96   1
  -3  -5   3 1267.52   48.34   1
   5  -3   3 1300.84   97.38   1
   5   3  -3 1102.06   29.42   1
   1   5  -590324.66  818.41   1
   3   5  -512577.27  205.78   1
   5  -3   511763.82  332.63   1
   3  -5   512601.30  326.83   1
  -5   5  -312600.67  352.09   1
   5  -5   312439.56  349.06   1
  -3   5  -512710.27  334.85   1
  -5   3  -513493.47  373.86   1
   5  -5   555005.38  809.25   1
  -5   5  -553324.53  812.20   1
  -6   0   0    3.26    7.38   1
   6   0   0    9.30    9.96   1
  -6   2   0   40.68   20.50   1
  -6   0  -2   45.65   17.04   1
   6   0  -2   47.79   15.72   1
  -6  -2   0   73.50   18.25   1
   6   0   2   43.79   16.69   1
   6  -2   0   78.09   23.42   1
   0  -6   2   60.53   20.11   1
   6  -4   0    3.37   12.71   1
   0   6  -4    2.69    8.10   1
  -2   6  -4 3482.36  168.31   1
  -6  -4   2 3637.48   79.54   1
  -4   6  -2 3609.93  182.36   1
  -6   2  -4 4084.80  197.54   1
  -2   4  -6 3664.63  171.10   1
   6  -4   2 3786.07  195.00   1
   2  -6   4 3744.93  177.47   1
   4  -6   2 3695.69  193.14   1
  -2  -6   4 3474.61  114.29   1
  -6   4  -2 4123.79  199.78   1
   2   6  -4 3710.68  121.00   1
   6  -2   4 3422.98  173.35   1
  -4   6  -4 4186.32  206.68   1
  -4   4  -6 4772.04  224.67   1
  -6   4  -4 4471.22  216.05   1
   4  -6   4 4512.24  217.50   1
   4  -4   6 3728.78  190.56   1
   6  -4   4 3979.85  202.20   1
   0  -6   655640.88  667.75   1
   0   6  -655271.56  687.03   1
   2  -6   674408.02  888.54   1
   2   6  -674455.41  737.36   1
  -6   4  -6 7688.12  307.75   1
   4   6  -6 7521.88  162.08   1
   6  -4   6 7766.45  304.90   1
  -6   6  -4 8056.98  316.62   1
  -4   6  -6 7854.26  305.22   1
   6  -6   4 7006.62  310.06   1
   4  -6   6 7738.91  290.72   1
   6  -6   637649.93  722.23   1
  -6   6  -636909.21  742.08   1
   7   1  -114033.49  275.49   1
   7  -1  -113980.49  320.20   1
  -7   1  -113837.62  336.21   1
  -7  -1  -113290.83  299.24   1
  -7  -1   113608.25  274.08   1
   7  -1   113917.45  328.78   1
  -7   1   113964.51  317.99   1
   7   1   113985.08  297.34   1
  -7   3  -132245.22  573.72   1
   7  -3  -133774.95  599.07   1
  -7  -3   133173.13  402.00   1
   7   1  -334288.83  450.93   1
  -7   1  -333840.23  586.31   1
  -7   3   135134.47  595.84   1
  -1  -7   334165.13  490.21   1
  -1   7  -333506.98  528.32   1
   7  -3   132641.96  580.72   1
   1  -7   332774.31  532.34   1
   7  -1   333168.06  554.12   1
  -3  -7   399999.00  825.76   1
   5  -7   1 3784.73  218.82   1
   1   5  -7 4331.13  165.35   1
  -1   5  -7 4071.03  183.07   1
  -7  -5   1 4026.88  118.75   1
  -7   5  -1 3950.10  215.17   1
  -1   7  -5 4366.51  190.46   1
   7  -5   1 4397.45  230.12   1
   1  -7   5 4229.34  184.57   1
  -1  -7   5 4340.40  158.56   1
  -5   7  -1 4532.15  232.78   1
   1   7  -5 4369.64  162.97   1
  -3   7  -5 4869.96  223.27   1
  -7   5  -3 4970.23  242.78   1
   3  -5   7 4618.56  211.11   1
   7  -3   5 5012.95  233.14   1
   5  -7   3 4858.16  244.73   1
   7   3  -5 4180.15  108.89   1
  -5  -7   3 4434.83   94.79   1
  -3  -7   5 4960.25  137.06   1
   3   7  -5 4774.10  136.58   1
  -7   3  -5 4662.53  234.80   1
   7  -5   3 5081.53  255.41   1
  -5   7  -3 4774.46  236.70   1
   3  -7   5 4781.49  219.96   1
  -3   5  -7 5035.48  236.71   1
  -5   5  -7  603.54   91.41   1
   5  -5   7  544.10   82.34   1
   7  -5   5  472.60   83.40   1
  -7   5  -5  457.78   83.42   1
  -5   7  -5  499.78   80.23   1
   5  -7   5  606.37   87.59   1
   1   7  -731974.57  498.30   1
  -1   7  -731595.42  562.25   1
  -7   7  -129086.40  637.48   1
   1  -7   730169.13  519.18   1
  -3   7  -748740.73  804.18   1
   7  -7   350815.93  911.12   1
   3  -7   748823.00  759.77   1
  -7   7  -347667.06  856.39   1
   3   7  -747988.09  580.06   1
  -7   7  -5 5609.90  298.58   1
  -5   7  -7 5258.98  280.57   1
  -7   5  -7 5458.51  291.55   1
   5  -7   7 5826.04  277.27   1
   7  -5   7 5627.70  288.20   1
   5   7  -7 5143.98  123.52   1
   7  -7   5 5389.12  285.85   1
  -7   7  -750838.88  981.63   1
   7  -7   751428.77  947.72   1
  -8  -2   0   11.28   10.66   1
   8   2   0    2.58    6.77   1
   8  -2  -2 3874.89  196.15   1
   8  -2   2 4070.34  197.12   1
   2  -8   2 4110.02  212.46   1
  -8  -2  -2 3813.07  170.74   1
   8   2  -2 4021.93  137.20   1
  -8   2  -2 4011.77  207.17   1
  -8  -2   2 4446.93  151.01   1
   0   8  -470321.40  787.76   1
  -8   4   063869.55  910.24   1
   8  -4   072914.96  981.33   1
   0  -8   465653.24  810.20   1
  -8  -4   065555.17  696.69   1
   2  -8   416532.35  415.20   1
   8  -4   217789.24  479.47   1
   4  -8   217188.68  484.51   1
   8   2  -417437.12  294.39   1
  -2  -8   417240.31  326.23   1
  -8   2  -416616.49  457.91   1
   8  -2   417183.19  440.59   1
  -4   8  -217371.49  461.92   1
  -8  -4   217258.10  260.29   1
  -2   8  -417210.20  416.51   1
  -8   4  -216886.55  449.71   1
  -8   4  -434560.97  700.64   1
   8  -4   434836.39  681.80   1
   4  -8   434305.82  681.19   1
  -4  -8   434958.01  402.06   1
  -4   8  -434245.61  662.57   1
   0  -8   6    1.36    8.82   1
   8  -6   0    0.86   17.94   1
   0   8  -6    2.42   12.15   1
  -8   6   0   17.74   23.26   1
  -2   8  -6 2615.44  167.95   1
   2  -8   6 2520.27  157.57   1
  -6   8  -2 2651.74  187.89   1
   6  -8   2 2745.73  207.32   1
  -8  -6   2 2466.06   79.77   1
   8  -6   2 2882.55  208.00   1
  -2  -8   6 2638.50  122.91   1
  -8   6  -2 2731.25  190.73   1
  -2   6  -8 2662.60  173.05   1
   2   8  -6 2674.75  129.80   1
   2   6  -8 2543.18  132.80   1
   4  -6   8 7718.64  307.61   1
  -8   6  -4 8005.09  347.06   1
  -4   8  -6 7919.57  324.43   1
   8  -6   4 8194.66  348.27   1
  -8   4  -6 8056.33  349.65   1
   8  -4   6 7329.62  328.15   1
   8   4  -6 7123.80  128.43   1
  -6   8  -4 8172.13  347.54   1
  -4   6  -8 8130.82  335.02   1
   6  -8   4 7585.31  339.37   1
   4  -8   6 8160.27  321.14   1
  -6   8  -6 8371.27  370.54   1
   6   6  -8 7443.28  155.90   1
  -8   6  -6 8666.64  385.38   1
   6  -8   6 8429.61  361.51   1
   8  -6   6 9077.74  382.40   1
  -6   6  -8 8538.49  375.72   1
   6  -6   8 8594.62  353.79   1
   0   8  -814866.28  400.00   1
   2  -8   832981.77  634.47   1
   2   8  -833972.87  556.10   1
  -2   8  -833113.52  664.03   1
   8  -8   233217.84  787.75   1
  -4   8  -825077.28  632.00   1
   8  -8   425854.12  696.22   1
   4  -8   823843.63  584.36   1
  -8   8  -424239.00  655.15   1
   4   8  -824936.05  383.30   1
   8  -6   815968.24  547.34   1
  -6   8  -817757.02  587.27   1
   8  -8   617278.76  568.02   1
   6  -8   816572.56  522.12   1
   9   1  -145413.90  602.08   1
   9   1   146151.05  651.24   1
  -9  -1  -145399.60  669.09   1
   9  -1  -145447.29  690.86   1
  -9   1  -144001.32  717.43   1
  -9   1   144264.82  670.50   1
  -9  -1   145933.15  621.43   1
  -1  -9   325546.87  495.95   1
  -9  -3   126045.13  429.93   1
   1  -9   324410.19  539.62   1
   9  -3  -124070.68  540.44   1
  -9  -1  -324029.39  514.96   1
   9   1  -326257.18  442.07   1
  -9   1  -325663.50  566.35   1
  -9  -3  -124014.85  464.74   1
   9  -1   323251.66  512.59   1
  -9   3   124270.18  543.15   1
   9  -3   125269.93  570.11   1
  -9   3  -124608.41  547.29   1
   9  -1  -324806.27  499.33   1
  -3  -9   3 1682.48  106.03   1
   3  -9   3 1811.22  156.18   1
   9  -3   3 1454.39  135.52   1
  -9   3  -3 1952.39  159.08   1
   9   3  -3 1752.77   85.19   1
  -3   9  -3 1705.70  147.12   1
   9  -5  -141194.05  822.33   1
  -9   5  -139762.09  771.81   1
   9  -5   140412.79  778.38   1
  -9  -5   140261.37  496.97   1
   1  -9   541767.84  700.33   1
  -1   9  -540876.90  666.94   1
  -1  -9   542040.58  621.93   1
   1   9  -538526.87  593.79   1
   9  -5   312561.00  435.86   1
  -9   5  -312938.87  449.87   1
   5  -9   311684.41  427.24   1
  -9   3  -512179.70  435.49   1
   9   3  -512814.63  238.34   1
  -5   9  -311993.97  408.76   1
   3  -9   512047.26  394.95   1
   9  -3   510902.74  393.25   1
  -3   9  -511421.12  372.65   1
  -5  -9   312328.20  248.24   1
  -3  -9   512451.24  270.66   1
  -5   9  -556692.79  959.63   1
   9  -5   556665.36  978.50   1
   5  -9   558915.84 1018.34   1
  -9   7  -1  595.98  101.17   1
  -1   7  -9  639.32   87.31   1
   1   7  -9  598.99   73.00   1
   1  -9   7  725.08   87.48   1
   1   9  -7  643.13   75.63   1
  -1   9  -7  624.60   80.54   1
  -1  -9   7  598.33   68.18   1
   9  -7   1  648.62  106.80   1
  -7  -9   3 2796.25   83.14   1
  -3   9  -7 4153.89  243.44   1
   3  -9   7 3633.75  218.41   1
   7  -9   3 3607.52  253.58   1
  -3   7  -9 3867.56  235.74   1
   3   7  -9 3654.23  165.59   1
  -7   9  -3 3797.36  257.31   1
   3   9  -7 3434.84  147.13   1
   9  -7   3 3724.45  265.89   1
  -9   7  -3 3777.27  256.62   1
   5  -9   7  229.75   64.07   1
   5   7  -9  322.88   40.84   1
  -5   7  -9  553.33   99.78   1
  -7   9  -5  326.22   78.77   1
   7  -9   5  113.48   54.65   1
  -5   9  -7  270.00   65.23   1
   9  -5   7  424.25   85.39   1
   9  -7   5  353.98   77.29   1
   7  -9   7  185.98   58.75   1
   7  -7   9  269.58   70.89   1
   7   7  -9  173.58   19.28   1
   1   9  -919136.10  467.48   1
  -1   9  -920373.29  535.66   1
   3  -9   912673.13  421.80   1
  -3   9  -912164.08  446.69   1
   3   9  -911956.59  308.42   1
   5  -9   932108.11  754.84   1
 -10   0   0   31.48   23.82   1
 -10   0   2 8262.48  283.22   1
 -10  -2   0 8120.00  274.58   1
  10   2   0 7149.76  237.53   1
 -10   0  -2 7871.91  304.56   1
  10   0  -2 7837.51  264.47   1
  10  -2   0 8456.38  318.54   1
 -10   2   0 7733.30  304.83   1
  10   0   2 7765.50  289.54   1
 -10   2  -231323.57  669.23   1
  10  -2  -230239.17  604.65   1
  10  -2   231243.99  637.29   1
  10   2  -232248.80  484.74   1
 -10  -2  -232196.04  614.78   1
 -10  -2   232802.62  511.61   1
  10   0  -4   28.91   21.05   1
 -10   4   0    8.39   14.34   1
 -10   0  -4   10.67   16.59   1
   0 -10   4   25.19   16.32   1
  10  -4   2 4625.15  263.22   1
  -2 -10   4 4391.55  192.26   1
   2 -10   4 4725.72  247.64   1
 -10   2  -4 4914.46  266.09   1
  10   2  -4 4539.51  169.05   1
  10  -2   4 4982.78  256.72   1
 -10  -4   2 5040.49  167.19   1
 -10   4  -2 4725.72  262.28   1
   4 -10   4  854.88  110.98   1
  -4 -10   4  941.73   75.49   1
  10  -4   4  990.23  126.02   1
  -4  10  -4  876.53  109.50   1
 -10   4  -4  878.93  123.38   1
   0 -10   614774.03  393.35   1
  10  -6   014916.63  511.09   1
 -10   6   014448.86  496.20   1
   0  10  -614246.55  386.85   1
  -2 -10   613612.16  325.18   1
 -10   6  -212398.04  462.75   1
  10  -6   213227.49  479.91   1
  -2  10  -613497.64  413.08   1
   2 -10   613770.62  417.38   1
 -10  -6   213579.94  244.34   1
  10   4  -625174.54  301.21   1
  10  -6   428313.31  726.26   1
 -10   4  -628467.50  733.68   1
   6 -10   427149.44  718.36   1
  -6 -10   424816.14  316.48   1
  -4 -10   626706.02  386.43   1
  -6  10  -425078.74  675.50   1
  -4  10  -625964.68  646.15   1
  10  -4   626661.70  686.18   1
   4 -10   626849.99  647.77   1
 -10   6  -426405.89  707.73   1
   6 -10   6 6319.08  341.42   1
 -10  -8   2   84.15   16.86   1
  -2   8 -10  100.73   43.03   1
  10  -8   2   63.20   45.74   1
   2  10  -8   97.03   33.14   1
  -2  10  -8   91.13   41.37   1
   2 -10   8   72.60   36.34   1
   4   8 -10 1554.29  108.14   1
  -4   8 -10 1531.13  162.75   1
   4 -10   8 1730.98  167.30   1
  -4  10  -8 1929.20  181.00   1
   6   8 -10 5327.33  162.01   1
   0  10 -1045585.30  828.68   1
  -2  10 -10 2317.25  198.57   1
   2  10 -10 2218.27  154.55   1
   4 -10  1019247.49  581.00   1
   4  10 -1020284.37  399.29   1
 -11   1  -131218.35  649.77   1
  11   1   132918.87  608.77   1
 -11  -1  -132345.38  631.23   1
  11  -1   132382.04  649.34   1
  11   1  -132238.07  559.52   1
 -11   1   131227.29  623.95   1
  11  -1  -133392.22  651.35   1
 -11  -1   133222.61  590.11   1
 -11   1  -322956.26  589.99   1
  11  -1  -322795.30  517.81   1
  11  -3  -123078.00  588.14   1
 -11  -3  -123909.99  511.51   1
 -11  -1  -323545.08  574.19   1
 -11   3   123064.11  581.01   1
  11   1  -324942.79  484.21   1
  11  -1   322536.69  562.27   1
 -11   3  -122635.80  585.86   1
  11  -3   122438.68  580.05   1
 -11  -3   125073.58  475.35   1
 -11   3  -333143.62  761.60   1
  11   3  -332854.49  469.05   1
 -11  -5   1 3716.23  164.76   1
  11   1  -5 3678.22  176.42   1
  11  -5  -1 3492.10  247.85   1
   1 -11   5 3566.21  218.58   1
  -1 -11   5 3771.82  199.37   1
 -11   1  -5 3880.77  256.46   1
  11  -5   1 3817.04  260.05   1
 -11   5  -1 3376.09  242.21   1
  11  -5   3 8310.71  392.67   1
 -11   3  -5 8657.87  400.30   1
   3 -11   5 8410.65  367.64   1
  -3 -11   5 8501.83  267.16   1
  -3  11  -5 8067.60  347.96   1
  11  -3   5 8258.07  378.46   1
 -11   5  -3 8239.47  389.83   1
  11   3  -5 8497.48  217.44   1
  11  -5   512369.24  488.86   1
   5 -11   511039.35  451.37   1
  -5  11  -511796.79  454.93   1
  -5 -11   510788.43  241.03   1
   1 -11   717786.02  474.72   1
  -1 -11   719416.94  444.39   1
 -11  -7   117486.40  341.13   1
  11  -7   118637.36  641.71   1
   1  11  -718481.07  443.58   1
  -1  11  -718370.43  491.54   1
   3 -11   726021.43  639.71   1
  11   3  -725262.65  396.42   1
  -3 -11   726791.48  457.35   1
  -3  11  -724757.41  629.67   1
   5 -11   7  704.50  113.30   1
   1  11  -9 1364.37  124.71   1
  -1  11  -9 1242.07  132.01   1
   1 -11   9 1499.06  143.04   1
   3 -11   9  121.56   46.69   1
   3  11  -9   49.21   22.26   1
  -3  11  -9   78.66   38.42   1
   3   9 -11    5.94   13.67   1
  -1  11 -11 1562.88  159.08   1
   1  11 -11 1533.30  140.66   1
   3  11 -1110776.06  330.46   1
  12   0   0 1820.15  144.82   1
 -12   0   0 1598.48  138.66   1
 -12   2   0   23.75   21.09   1
  12   2   0    7.00   15.28   1
 -12  -2   0    8.58   16.34   1
  12   0  -2    4.28   13.75   1
  12  -2   0   13.15   19.62   1
 -12   0  -2   21.92   25.61   1
  12   0   2   18.14   24.91   1
 -12  -2  -2  384.09   73.73   1
  12  -2  -2  293.87   57.18   1
 -12  -2   2  354.81   54.98   1
  12  -2   2  447.07   79.24   1
 -12   2  -2  480.36   87.66   1
  12   2  -2  472.58   63.34   1
 -12  -4   010154.09  319.43   1
   0 -12   4 9969.05  371.28   1
  12   0  -4 9962.94  325.18   1
 -12   0  -4 9833.48  409.20   1
  12  -4   0 9423.69  397.33   1
 -12   4   0 9638.07  404.62   1
  12  -4   212439.05  467.53   1
 -12   2  -412153.73  472.41   1
   2 -12   412536.23  452.53   1
  12  -4  -212039.66  456.65   1
 -12  -4   213179.77  320.54   1
  12  -2   412455.45  455.57   1
 -12   4  -210889.09  451.55   1
  12   2  -412502.27  316.82   1
   4 -12   4 3235.49  251.40   1
  12  -4   4 3767.65  263.43   1
 -12  -6   0    4.80    9.56   1
  -2  12  -6  445.54   84.17   1
  12   2  -6  581.42   68.66   1
   2 -12   6  479.47   89.65   1
  -2 -12   6  498.28   70.82   1
 -12  -6   2  496.07   52.35   1
  -4 -12   6 6346.51  211.71   1
   4 -12   6 6429.52  354.77   1
   0 -12   8 1007.92  113.74   1
   0  12  -8  976.16  111.09   1
   2 -12   826261.35  642.82   1
  -2  12  -825993.53  653.69   1
  -2 -12   826428.75  525.22   1
   4 -12   8  462.93   94.68   1
   2 -12  10   39.72   33.95   1
   2  12 -10   66.03   33.12   1
   0  12 -12  209.17   58.99   1
  13  -1  -120762.49  541.15   1
 -13  -1  -121818.57  577.49   1
  13   1   120332.21  514.90   1
  13  -1   119675.97  544.19   1
  13   1  -121163.70  489.52   1
 -13   1   120224.10  544.72   1
 -13  -1   120079.62  498.45   1
 -13   1  -120085.68  567.56   1
  13  -1   310481.68  417.51   1
  13   1  -310236.72  323.26   1
  13  -3   110418.79  429.20   1
 -13   1  -310573.52  447.99   1
 -13  -3  -110325.73  366.07   1
 -13  -1  -3 9513.26  399.74   1
  13  -1  -310304.50  375.61   1
 -13   3   110446.98  428.95   1
  13  -3  -110357.83  426.97   1
 -13   3  -110083.63  422.30   1
 -13  -3   110672.57  337.75   1
  13   3  -3 2265.22  146.32   1
  13  -3   320191.46  602.06   1
  13  -5  -118848.48  630.08   1
  -1 -13   519365.55  520.20   1
   1 -13   519250.77  570.96   1
  13   1  -519091.30  452.96   1
  13  -5   118521.52  638.06   1
 -13  -5   118602.39  422.48   1
  13   3  -5 8562.79  242.15   1
   3 -13   5 8200.83  398.17   1
  -3 -13   5 8775.85  311.79   1
  -5 -13   513900.37  336.41   1
   1 -13   7 3913.29  246.79   1
 -13  -7   1 3750.27  174.78   1
  -1 -13   7 3564.66  210.29   1
   3 -13   7 3628.41  262.00   1
  -3 -13   7 3580.13  184.29   1
   1 -13   9 8162.50  351.33   1
   1  13  -9 7973.13  323.73   1
  -1  13  -9 7734.59  356.36   1
  -1 -13   9 8320.72  324.44   1
   1  13 -11  168.54   52.17   1
  14   0   0   25.31   24.66   1
 -14   0  -2 4387.82  280.38   1
  14   0   2 3583.97  238.47   1
  14  -2   0 3384.05  234.97   1
  14   0  -2 3757.48  219.94   1
 -14   2   0 3792.00  255.48   1
 -14  -2   0 4026.58  232.72   1
 -14  -2   2  205.99   52.34   1
  14  -2  -2  151.50   55.19   1
  14   2  -2  270.60   52.57   1
  14  -2   2  255.70   69.22   1
 -14  -2  -2  179.59   55.57   1
  14  -4   0   29.92   31.18   1
 -14  -4   0    3.98   19.66   1
  14   2  -4  313.40   53.31   1
 -14  -4   2  236.99   47.09   1
   0 -14   619269.51  565.08   1
   2 -14   6   56.44   41.20   1
  -2 -14   6   40.08   25.25   1
  14   2  -6   21.47   13.10   1
   0 -14   8    8.48   27.94   1
   2 -14   8 3293.35  246.00   1
  -2 -14   8 3403.52  200.49   1
   0 -14  1019657.88  555.25   1
   0  14 -1019237.89  558.68   1
  15  -1  -110970.11  418.37   1
  15  -1   110791.50  429.99   1
 -15   1   1 9950.72  405.93   1
 -15  -1   110983.76  406.11   1
  15   1  -111070.95  391.46   1
 -15  -1  -110554.41  419.98   1
 -15  -3  -1 8611.26  372.84   1
  15   1  -3 8130.94  312.20   1
 -15  -3   1 8430.98  324.79   1
  15  -1  -3 7696.61  345.90   1
  15  -3  -1 7679.98  385.65   1
  15   1  -5 8839.46  320.80   1
  -1 -15   7 3527.37  233.64   1
   1 -15   7 3454.52  255.90   1
   1 -15   9 2352.24  203.23   1
 -16   0   0   63.69   35.01   1
  16   0   0   40.12   38.89   1
  16   0  -2    8.27   26.07   1
  16   2  -2   36.04   23.10   1
 -16  -2  -2   63.15   41.75   1
  16  -2  -2    4.12   22.13   1
  16   0  -4 1740.81  155.74   1
 -16  -4   0 1929.78  163.25   1
  17   1  -1 7769.52  342.45   1
 -17  -1   1 7826.18  363.43   1
  17  -1  -3 4936.16  282.50   1
  17   1  -3 5139.63  265.34   1
  18   0  -2 1401.11  150.17   1
   0   0   0    0.00    0.00   0
;
_shelx_hkl_checksum              41835
_shelx_shelxl_version_number     2014/7
loop_
_space_group_symop_operation_xyz
'x, y, z'
'-x+3/4, -y+1/4, z+1/2'
'-x+1/4, y+1/2, -z+3/4'
'x+1/2, -y+3/4, -z+1/4'
'z, x, y'
'z+1/2, -x+3/4, -y+1/4'
'-z+3/4, -x+1/4, y+1/2'
'-z+1/4, x+1/2, -y+3/4'
'y, z, x'
'-y+1/4, z+1/2, -x+3/4'
'y+1/2, -z+3/4, -x+1/4'
'-y+3/4, -z+1/4, x+1/2'
'y+3/4, x+1/4, -z+1/2'
'-y, -x, -z'
'y+1/4, -x+1/2, z+3/4'
'-y+1/2, x+3/4, z+1/4'
'x+3/4, z+1/4, -y+1/2'
'-x+1/2, z+3/4, y+1/4'
'-x, -z, -y'
'x+1/4, -z+1/2, y+3/4'
'z+3/4, y+1/4, -x+1/2'
'z+1/4, -y+1/2, x+3/4'
'-z+1/2, y+3/4, x+1/4'
'-z, -y, -x'
'x, y+1/2, z+1/2'
'-x+3/4, -y+3/4, z+1'
'-x+1/4, y+1, -z+5/4'
'x+1/2, -y+5/4, -z+3/4'
'z, x+1/2, y+1/2'
'z+1/2, -x+5/4, -y+3/4'
'-z+3/4, -x+3/4, y+1'
'-z+1/4, x+1, -y+5/4'
'y, z+1/2, x+1/2'
'-y+1/4, z+1, -x+5/4'
'y+1/2, -z+5/4, -x+3/4'
'-y+3/4, -z+3/4, x+1'
'y+3/4, x+3/4, -z+1'
'-y, -x+1/2, -z+1/2'
'y+1/4, -x+1, z+5/4'
'-y+1/2, x+5/4, z+3/4'
'x+3/4, z+3/4, -y+1'
'-x+1/2, z+5/4, y+3/4'
'-x, -z+1/2, -y+1/2'
'x+1/4, -z+1, y+5/4'
'z+3/4, y+3/4, -x+1'
'z+1/4, -y+1, x+5/4'
'-z+1/2, y+5/4, x+3/4'
'-z, -y+1/2, -x+1/2'
'x+1/2, y, z+1/2'
'-x+5/4, -y+1/4, z+1'
'-x+3/4, y+1/2, -z+5/4'
'x+1, -y+3/4, -z+3/4'
'z+1/2, x, y+1/2'
'z+1, -x+3/4, -y+3/4'
'-z+5/4, -x+1/4, y+1'
'-z+3/4, x+1/2, -y+5/4'
'y+1/2, z, x+1/2'
'-y+3/4, z+1/2, -x+5/4'
'y+1, -z+3/4, -x+3/4'
'-y+5/4, -z+1/4, x+1'
'y+5/4, x+1/4, -z+1'
'-y+1/2, -x, -z+1/2'
'y+3/4, -x+1/2, z+5/4'
'-y+1, x+3/4, z+3/4'
'x+5/4, z+1/4, -y+1'
'-x+1, z+3/4, y+3/4'
'-x+1/2, -z, -y+1/2'
'x+3/4, -z+1/2, y+5/4'
'z+5/4, y+1/4, -x+1'
'z+3/4, -y+1/2, x+5/4'
'-z+1, y+3/4, x+3/4'
'-z+1/2, -y, -x+1/2'
'x+1/2, y+1/2, z'
'-x+5/4, -y+3/4, z+1/2'
'-x+3/4, y+1, -z+3/4'
'x+1, -y+5/4, -z+1/4'
'z+1/2, x+1/2, y'
'z+1, -x+5/4, -y+1/4'
'-z+5/4, -x+3/4, y+1/2'
'-z+3/4, x+1, -y+3/4'
'y+1/2, z+1/2, x'
'-y+3/4, z+1, -x+3/4'
'y+1, -z+5/4, -x+1/4'
'-y+5/4, -z+3/4, x+1/2'
'y+5/4, x+3/4, -z+1/2'
'-y+1/2, -x+1/2, -z'
'y+3/4, -x+1, z+3/4'
'-y+1, x+5/4, z+1/4'
'x+5/4, z+3/4, -y+1/2'
'-x+1, z+5/4, y+1/4'
'-x+1/2, -z+1/2, -y'
'x+3/4, -z+1, y+3/4'
'z+5/4, y+3/4, -x+1/2'
'z+3/4, -y+1, x+3/4'
'-z+1, y+5/4, x+1/4'
'-z+1/2, -y+1/2, -x'
'-x, -y, -z'
'x-3/4, y-1/4, -z-1/2'
'x-1/4, -y-1/2, z-3/4'
'-x-1/2, y-3/4, z-1/4'
'-z, -x, -y'
'-z-1/2, x-3/4, y-1/4'
'z-3/4, x-1/4, -y-1/2'
'z-1/4, -x-1/2, y-3/4'
'-y, -z, -x'
'y-1/4, -z-1/2, x-3/4'
'-y-1/2, z-3/4, x-1/4'
'y-3/4, z-1/4, -x-1/2'
'-y-3/4, -x-1/4, z-1/2'
'y, x, z'
'-y-1/4, x-1/2, -z-3/4'
'y-1/2, -x-3/4, -z-1/4'
'-x-3/4, -z-1/4, y-1/2'
'x-1/2, -z-3/4, -y-1/4'
'x, z, y'
'-x-1/4, z-1/2, -y-3/4'
'-z-3/4, -y-1/4, x-1/2'
'-z-1/4, y-1/2, -x-3/4'
'z-1/2, -y-3/4, -x-1/4'
'z, y, x'
'-x, -y+1/2, -z+1/2'
'x-3/4, y+1/4, -z'
'x-1/4, -y, z-1/4'
'-x-1/2, y-1/4, z+1/4'
'-z, -x+1/2, -y+1/2'
'-z-1/2, x-1/4, y+1/4'
'z-3/4, x+1/4, -y'
'z-1/4, -x, y-1/4'
'-y, -z+1/2, -x+1/2'
'y-1/4, -z, x-1/4'
'-y-1/2, z-1/4, x+1/4'
'y-3/4, z+1/4, -x'
'-y-3/4, -x+1/4, z'
'y, x+1/2, z+1/2'
'-y-1/4, x, -z-1/4'
'y-1/2, -x-1/4, -z+1/4'
'-x-3/4, -z+1/4, y'
'x-1/2, -z-1/4, -y+1/4'
'x, z+1/2, y+1/2'
'-x-1/4, z, -y-1/4'
'-z-3/4, -y+1/4, x'
'-z-1/4, y, -x-1/4'
'z-1/2, -y-1/4, -x+1/4'
'z, y+1/2, x+1/2'
'-x+1/2, -y, -z+1/2'
'x-1/4, y-1/4, -z'
'x+1/4, -y-1/2, z-1/4'
'-x, y-3/4, z+1/4'
'-z+1/2, -x, -y+1/2'
'-z, x-3/4, y+1/4'
'z-1/4, x-1/4, -y'
'z+1/4, -x-1/2, y-1/4'
'-y+1/2, -z, -x+1/2'
'y+1/4, -z-1/2, x-1/4'
'-y, z-3/4, x+1/4'
'y-1/4, z-1/4, -x'
'-y-1/4, -x-1/4, z'
'y+1/2, x, z+1/2'
'-y+1/4, x-1/2, -z-1/4'
'y, -x-3/4, -z+1/4'
'-x-1/4, -z-1/4, y'
'x, -z-3/4, -y+1/4'
'x+1/2, z, y+1/2'
'-x+1/4, z-1/2, -y-1/4'
'-z-1/4, -y-1/4, x'
'-z+1/4, y-1/2, -x-1/4'
'z, -y-3/4, -x+1/4'
'z+1/2, y, x+1/2'
'-x+1/2, -y+1/2, -z'
'x-1/4, y+1/4, -z-1/2'
'x+1/4, -y, z-3/4'
'-x, y-1/4, z-1/4'
'-z+1/2, -x+1/2, -y'
'-z, x-1/4, y-1/4'
'z-1/4, x+1/4, -y-1/2'
'z+1/4, -x, y-3/4'
'-y+1/2, -z+1/2, -x'
'y+1/4, -z, x-3/4'
'-y, z-1/4, x-1/4'
'y-1/4, z+1/4, -x-1/2'
'-y-1/4, -x+1/4, z-1/2'
'y+1/2, x+1/2, z'
'-y+1/4, x, -z-3/4'
'y, -x-1/4, -z-1/4'
'-x-1/4, -z+1/4, y-1/2'
'x, -z-1/4, -y-1/4'
'x+1/2, z+1/2, y'
'-x+1/4, z, -y-3/4'
'-z-1/4, -y+1/4, x-1/2'
'-z+1/4, y, -x-3/4'
'z, -y-1/4, -x-1/4'
'z+1/2, y+1/2, x'
loop_
_atom_site_label
_atom_site_type_symbol
_atom_site_fract_x
_atom_site_fract_y
_atom_site_fract_z
_atom_site_U_iso_or_equiv
_atom_site_adp_type
_atom_site_occupancy
_atom_site_site_symmetry_order
_atom_site_calc_flag
_atom_site_refinement_flags_posn
_atom_site_refinement_flags_adp
_atom_site_refinement_flags_occupancy
As1 As 0.26698(3) 0.26698(3) 0.26698(3) 0.0111(3) Uani 1 6 d S T P
O1 O 0.3750 0.3750 0.1935(3) 0.0130(6) Uani 1 4 d S T P
loop_
_atom_site_aniso_label
_atom_site_aniso_U_11
_atom_site_aniso_U_22
_atom_site_aniso_U_33
_atom_site_aniso_U_23
_atom_site_aniso_U_13
_atom_site_aniso_U_12
As1 0.0111(3) 0.0111(3) 0.0111(3) -0.00118(11) -0.00118(11) -0.00118(11)
O1 0.0140(9) 0.0140(9) 0.0110(14) 0.000 0.000 -0.0004(13)
loop_
_atom_type_symbol
_atom_type_description
_atom_type_scat_dispersion_real
_atom_type_scat_dispersion_imag
_atom_type_scat_source
As As 0.3110 0.7990 'International Tables Vol C Tables 4.2.6.8 and 6.1.1.4'
O O 0.0020 0.0020 'International Tables Vol C Tables 4.2.6.8 and 6.1.1.4'
loop_
_geom_angle_atom_site_label_1
_geom_angle_atom_site_label_2
_geom_angle_atom_site_label_3
_geom_angle
_geom_angle_site_symmetry_1
_geom_angle_site_symmetry_3
O1 As1 O1 98.41(13) . 9
O1 As1 O1 98.41(13) . 5
O1 As1 O1 98.41(13) 9 5
As1 O1 As1 128.6(2) 26_554 .
loop_
_geom_bond_atom_site_label_1
_geom_bond_atom_site_label_2
_geom_bond_distance
_geom_bond_site_symmetry_2
As1 O1 1.7969(16) .
As1 O1 1.7969(16) 9
As1 O1 1.7969(16) 5
O1 As1 1.7968(16) 26_554
