#------------------------------------------------------------------------------
#$Date: 2015-09-04 08:12:49 +0300 (Fri, 04 Sep 2015) $
#$Revision: 153928 $
#$URL: svn://www.crystallography.net/cod/cif/4/51/35/4513579.cif $
#------------------------------------------------------------------------------
#
# This file is available in the Crystallography Open Database (COD),
# http://www.crystallography.net/
#
# All data on this site have been placed in the public domain by the
# contributors.
#
data_4513579
loop_
_publ_author_name
'Gu\'nka, Piotr A.'
'Dziubek, Kamil F.'
'G\/ladysiak, Andrzej'
'Dranka, Maciej'
'Piechota, Jacek'
'Hanfland, Michael'
'Katrusiak, Andrzej'
'Zachara, Janusz'
_publ_section_title
;
 Compressed Arsenolite As4O6and Its Helium Clathrate As4O6&#x00B7;2He
;
_journal_issue                   8
_journal_name_full               'Crystal Growth &amp; Design'
_journal_page_first              3740
_journal_paper_doi               10.1021/acs.cgd.5b00390
_journal_volume                  15
_journal_year                    2015
_chemical_formula_moiety         '2(As2 O3)'
_chemical_formula_sum            'As4 O6'
_chemical_formula_weight         395.69
_space_group_crystal_system      cubic
_space_group_IT_number           227
_space_group_name_Hall           '-F 4vw 2vw 3'
_space_group_name_H-M_alt        'F d -3 m'
_symmetry_space_group_name_Hall  '-F 4vw 2vw 3'
_symmetry_space_group_name_H-M   'F d -3 m :2'
_atom_sites_solution_primary     direct
_audit_creation_date             2015-01-22
_audit_creation_method
;
Olex2 1.2-beta
(compiled 2015.01.19 svn.r3143 for OlexSys, GUI svn.r4992)
;
_cell_angle_alpha                90
_cell_angle_beta                 90
_cell_angle_gamma                90
_cell_formula_units_Z            8
_cell_length_a                   9.7729(4)
_cell_length_b                   9.7729(4)
_cell_length_c                   9.7729(4)
_cell_measurement_pressure       1.759e7(5)
_cell_measurement_reflns_used    268
_cell_measurement_temperature    293(2)
_cell_measurement_theta_max      15.2750
_cell_measurement_theta_min      2.0920
_cell_volume                     933.41(7)
_computing_cell_refinement
;
CrysAlisPro, Agilent Technologies,
Version 1.171.37.35 (release 13-08-2014 CrysAlis171 .NET)
(compiled Aug 13 2014,18:06:01)
;
_computing_data_collection
;
CrysAlisPro, Agilent Technologies,
Version 1.171.37.35 (release 13-08-2014 CrysAlis171 .NET)
(compiled Aug 13 2014,18:06:01)
;
_computing_data_reduction
;
CrysAlisPro, Agilent Technologies,
Version 1.171.37.35 (release 13-08-2014 CrysAlis171 .NET)
(compiled Aug 13 2014,18:06:01)
;
_computing_molecular_graphics    'Olex2 (Dolomanov et al., 2009)'
_computing_publication_material  'Olex2 (Dolomanov et al., 2009)'
_computing_structure_refinement  'ShelXL (Sheldrick, 2008)'
_computing_structure_solution    'ShelXT (Sheldrick, 2015)'
_diffrn_ambient_environment      He
_diffrn_ambient_pressure         1.759e7(5)
_diffrn_ambient_temperature      293(2)
_diffrn_detector                 'CCD plate'
_diffrn_measured_fraction_theta_full 0.810
_diffrn_measured_fraction_theta_max 0.651
_diffrn_measurement_details
;
  1 phi    148.00  212.00   0.5000    1.0000
omega____ theta____ kappa____ phi______ frames
   0.0000    0.0000    0.0000     -     128
;
_diffrn_measurement_device       'abstract diffractometer'
_diffrn_measurement_device_type
'MAR-CrysAlisPro-abstract goniometer: imported MAR images'
_diffrn_measurement_method       '\p scans'
_diffrn_orient_matrix_UB_11      0.0343883000
_diffrn_orient_matrix_UB_12      -0.0248268000
_diffrn_orient_matrix_UB_13      0.0007116000
_diffrn_orient_matrix_UB_21      0.0167655000
_diffrn_orient_matrix_UB_22      0.0241205000
_diffrn_orient_matrix_UB_23      0.0305393000
_diffrn_orient_matrix_UB_31      -0.0182477000
_diffrn_orient_matrix_UB_32      -0.0244666000
_diffrn_orient_matrix_UB_33      0.0293960000
_diffrn_radiation_monochromator  synchrotron
_diffrn_radiation_probe          x-ray
_diffrn_radiation_wavelength     0.41427
_diffrn_reflns_av_R_equivalents  0.0271
_diffrn_reflns_av_unetI/netI     0.0211
_diffrn_reflns_laue_measured_fraction_full 0.810
_diffrn_reflns_laue_measured_fraction_max 0.651
_diffrn_reflns_limit_h_max       9
_diffrn_reflns_limit_h_min       -11
_diffrn_reflns_limit_k_max       14
_diffrn_reflns_limit_k_min       -12
_diffrn_reflns_limit_l_max       16
_diffrn_reflns_limit_l_min       -15
_diffrn_reflns_number            425
_diffrn_reflns_point_group_measured_fraction_full 0.810
_diffrn_reflns_point_group_measured_fraction_max 0.651
_diffrn_reflns_theta_full        14.392
_diffrn_reflns_theta_max         19.621
_diffrn_reflns_theta_min         2.104
_diffrn_source                   synchrotron
_exptl_absorpt_coefficient_mu    6.507
_exptl_absorpt_correction_T_max  1.00000
_exptl_absorpt_correction_T_min  0.72950
_exptl_absorpt_correction_type   multi-scan
_exptl_absorpt_process_details
;
CrysAlisPro, Agilent Technologies,
Version 1.171.37.35 (release 13-08-2014 CrysAlis171 .NET)
(compiled Aug 13 2014,18:06:01)
Empirical absorption correction using spherical harmonics,
 implemented in SCALE3 ABSPACK scaling algorithm.
;
_exptl_crystal_density_diffrn    5.631
_exptl_crystal_description       block
_exptl_crystal_F_000             1440
_exptl_crystal_size_max          0.065
_exptl_crystal_size_mid          0.04
_exptl_crystal_size_min          0.02
_refine_diff_density_max         0.485
_refine_diff_density_min         -0.646
_refine_diff_density_rms         0.143
_refine_ls_extinction_method     none
_refine_ls_goodness_of_fit_ref   1.310
_refine_ls_hydrogen_treatment    undef
_refine_ls_matrix_type           full
_refine_ls_number_parameters     8
_refine_ls_number_reflns         84
_refine_ls_number_restraints     0
_refine_ls_restrained_S_all      1.310
_refine_ls_R_factor_all          0.0342
_refine_ls_R_factor_gt           0.0332
_refine_ls_shift/su_max          0.000
_refine_ls_shift/su_mean         0.000
_refine_ls_structure_factor_coef Fsqd
_refine_ls_weighting_details
'w=1/[\s^2^(Fo^2^)+(0.0430P)^2^+8.0480P] where P=(Fo^2^+2Fc^2^)/3'
_refine_ls_weighting_scheme      calc
_refine_ls_wR_factor_gt          0.0920
_refine_ls_wR_factor_ref         0.0933
_reflns_Friedel_coverage         0.000
_reflns_number_gt                80
_reflns_number_total             84
_reflns_threshold_expression     'I > 2\s(I)'
_cod_data_source_file            cg5b00390_si_002.cif
_cod_data_source_block           marseno_019
_cod_original_cell_volume        933.40(10)
_cod_database_code               4513579
_chemical_oxdiff_formula         'As4 O6'
_shelx_space_group_comment
;
The symmetry employed for this shelxl refinement is uniquely defined
by the following loop, which should always be used as a source of
symmetry information in preference to the above space-group names.
They are only intended as comments.
;
_olex2_refinement_description
;
;
_shelx_res_file
;
    marseno_019.res created by SHELXL-2014/7

TITL marseno_019_a.res in Fd-3m
REM Old TITL marseno_019 in Fd-3m #227
CELL 0.41427 9.772878 9.772878 9.772878 90 90 90
ZERR 8 0.000365 0.000365 0.000365 0 0 0
LATT 4
SYMM 0.75-X,0.25-Y,0.5+Z
SYMM 0.25-X,0.5+Y,0.75-Z
SYMM 0.5+X,0.75-Y,0.25-Z
SYMM +Z,+X,+Y
SYMM 0.5+Z,0.75-X,0.25-Y
SYMM 0.75-Z,0.25-X,0.5+Y
SYMM 0.25-Z,0.5+X,0.75-Y
SYMM +Y,+Z,+X
SYMM 0.25-Y,0.5+Z,0.75-X
SYMM 0.5+Y,0.75-Z,0.25-X
SYMM 0.75-Y,0.25-Z,0.5+X
SYMM 0.75+Y,0.25+X,0.5-Z
SYMM -Y,-X,-Z
SYMM 0.25+Y,0.5-X,0.75+Z
SYMM 0.5-Y,0.75+X,0.25+Z
SYMM 0.75+X,0.25+Z,0.5-Y
SYMM 0.5-X,0.75+Z,0.25+Y
SYMM -X,-Z,-Y
SYMM 0.25+X,0.5-Z,0.75+Y
SYMM 0.75+Z,0.25+Y,0.5-X
SYMM 0.25+Z,0.5-Y,0.75+X
SYMM 0.5-Z,0.75+Y,0.25+X
SYMM -Z,-Y,-X
SFAC As O
DISP As 0.311 0.799 1882.762
DISP O 0.002 0.002 10.067
UNIT 32.00064 48

L.S. 10 0 0
PLAN  20
BOND $H
LIST 6
CONF
more -3
fmap 2 53
acta
OMIT 0 0 16
REM <olex2.extras>
REM <HklSrc "%.\\marseno_019.hkl">
REM </olex2.extras>

WGHT    0.043000    8.048000
FVAR       1.68668
O1    2    0.375000    0.375000    0.181810    10.25000    0.01468    0.01468 =
         0.01095    0.00000    0.00000   -0.00192
AS1   1    0.256416    0.256416    0.256416    10.16667    0.01098    0.01098 =
         0.01098   -0.00055   -0.00055   -0.00055
HKLF 4

REM  marseno_019_a.res in Fd-3m
REM R1 =  0.0332 for      80 Fo > 4sig(Fo)  and  0.0342 for all      84 data
REM      8 parameters refined using      0 restraints

END

WGHT      0.0427      8.0534

REM Highest difference peak  0.485,  deepest hole -0.646,  1-sigma level  0.143
Q1    1   0.2180  0.3028  0.2180  10.50000  0.05    0.49
Q2    1   0.2787  0.4713  0.2787  10.16667  0.05    0.47
Q3    1   0.2084  0.2084  0.2084  10.16667  0.05    0.46
Q4    1   0.3511  0.2056  0.2056  10.50000  0.05    0.45
Q5    1   0.2975  0.3627  0.2018  11.00000  0.05    0.44
Q6    1   0.3588  0.2012  0.2012  10.50000  0.05    0.44
Q7    1   0.2960  0.3619  0.2326  11.00000  0.05    0.40
Q8    1   0.3750  0.3750  0.2512  10.25000  0.05    0.40
Q9    1   0.2221  0.1507  0.1507  10.50000  0.05    0.38
Q10   1   0.3949  0.3551  0.2482  10.50000  0.05    0.37
Q11   1   0.1438  0.2697  0.2697  10.50000  0.05    0.36
Q12   1   0.2269  0.0231  0.2269  10.16667  0.05    0.36
Q13   1   0.3768  0.4658  0.1982  11.00000  0.05    0.35
Q14   1   0.3761  0.2693  0.1904  11.00000  0.05    0.35
Q15   1   0.2729  0.2729  0.2729  10.16667  0.05    0.35
Q16   1   0.3773  0.2466  0.1857  11.00000  0.05    0.32
Q17   1   0.3259  0.2961  0.2961  10.50000  0.05    0.31
Q18   1   0.1250  0.2120  0.1250  10.25000  0.05    0.30
Q19   1   0.5000  0.5000  0.0000  10.08333  0.05    0.27
Q20   1   0.2301  0.0893  0.2301  10.50000  0.05    0.26
;
_shelx_res_checksum              44182
_shelx_hkl_file
;
   1   1   1 66470.1 994.404   1
  -1  -1  -1 65930.5 1028.24   1
   0   0   2 3.19689 15.6463   1
  -2  -2   0 5721.76 313.399   1
   2   2   0 5908.64 304.550   1
   0   2   2 7272.57 435.422   1
   0  -2  -2 6754.94 405.336   1
  -1  -1   3 30.3055 20.2578   1
   1   1   3 17.8861 31.3265   1
  -1  -1  -3 83.0706 44.4025   1
   1   3   1 10.5091 35.9303   1
   1   1  -3 26.2442 23.7708   1
  -1  -3  -1 92.7833 51.8895   1
  -3  -3  -1 77362.5 1616.57   1
  -3  -1  -3 79584.4 1695.73   1
   3   3  -1 76958.5 1177.38   1
  -1  -3  -3 78800.2 1787.84   1
   1   3   3 74984.4 1806.20   1
  -3  -3   1 79072.7 1281.17   1
   3   1   3 77101.5 1664.74   1
   3   3   1 73771.8 1469.90   1
  -3  -3   3 36.5751 15.9454   1
   3   3   3 28.3944 43.8832   1
   0   2   4 17.1505 40.5112   1
  -2   0  -4 28.3100 40.5869   1
  -2  -4   0 29.5125 33.2636   1
   2   4   0 56.4760 39.4212   1
   0   2  -4 1.49002 17.6997   1
  -2  -2  -4 34362.0 1233.83   1
  -2  -4  -2 34371.7 1191.29   1
   2   4  -2 32709.8 744.977   1
   2   4   2 33541.6 1191.93   1
  -2  -2   4 30289.6 496.886   1
   2   2   4 32960.7 1174.03   1
   4   4   2 1178.24 224.555   1
   2   4   4 631.825 174.848   1
  -4  -2  -4 831.738 216.609   1
  -4  -4  -2 894.081 214.385   1
   4   2   4 957.860 216.526   1
   2   4  -4 301.764 24.5912   1
  -2  -4  -4 911.608 210.613   1
  -4  -4   2 966.678 141.058   1
   1   1   5 631.726 147.748   1
  -1   1  -5 846.976 159.512   1
  -1  -1  -5 1012.62 215.347   1
   1  -1  -5 999.004 184.588   1
  -1   1   5 1061.99 201.790   1
   1   1  -5 870.299 143.413   1
  -1  -1   5 896.313 137.034   1
   1   3   5 9236.83 712.187   1
   1   3  -5 8987.04 363.623   1
   3   5  -1 9543.07 534.981   1
  -1  -3  -5 10381.3 745.561   1
  -1  -5  -3 10480.7 738.036   1
   3   5   1 9776.73 655.408   1
  -3  -5   1 9732.12 531.446   1
   1   5   3 10540.5 805.522   1
   3   1   5 9864.42 660.600   1
  -3  -5  -1 9521.42 638.105   1
  -3  -1  -5 10782.2 768.417   1
   3   5  -3 845.002 110.224   1
  -3  -3  -5 778.990 224.753   1
  -5  -3  -3 727.441 207.042   1
  -3  -5  -3 865.261 226.232   1
   5   3   3 818.276 193.449   1
   3   3   5 590.083 171.513   1
   3   5   3 890.610 215.331   1
   5   5   1 120727. 2295.03   1
  -1  -5  -5 120036. 2824.74   1
   1   5   5 122090. 3172.62   1
  -5  -5  -1 124995. 2577.38   1
  -5  -5   1 123112. 2166.71   1
   5   5  -1 124277. 2093.93   1
   5   5   3 6463.38 596.690   1
  -3  -5  -5 5717.55 678.912   1
   5   3   5 5658.89 602.048   1
   3   5   5 6350.00 716.955   1
  -5  -5  -3 6421.08 665.500   1
  -5  -5   3 6228.96 394.972   1
  -5  -3  -5 6112.29 730.191   1
   5   5   5 16621.9 1099.68   1
  -5  -5  -5 18864.8 1316.08   1
   0  -2  -6 2886.98 381.039   1
   0   2  -6 2984.59 307.354   1
   2   6   0 3130.93 386.521   1
  -2   0  -6 2978.79 382.560   1
  -2   0   6 2846.73 329.377   1
   0   2   6 3188.04 401.681   1
   2   0   6 2986.70 353.481   1
  -6  -4   0 105.595 75.6333   1
   0   4   6 59.3355 52.4967   1
   2   6   4 109.591 107.098   1
   2   4   6 37.2960 70.6955   1
  -6  -4  -2 95.0759 74.4494   1
  -4  -6   2 96.5190 50.5277   1
   2   4  -6 67.2916 26.1232   1
   4   6  -2 76.2119 40.1489   1
   4   6   2 58.5824 48.0004   1
  -2  -6  -4 43.9567 81.8549   1
  -4  -2  -6 82.4551 76.0358   1
  -2  -4  -6 116.799 123.143   1
   4   2   6 93.0454 71.0497   1
  -4  -6  -2 225.739 117.139   1
  -4  -4  -6 174.774 97.7841   1
   4   4   6 169.527 127.985   1
   6   4   4 263.710 139.158   1
   4   6   4 188.522 101.689   1
  -4  -6  -4 186.020 163.754   1
  -6  -4  -4 307.630 165.294   1
   6   6   0 31440.1 1229.13   1
  -6  -6   0 31087.0 1317.38   1
   6   6   4 73.6055 55.6496   1
  -6  -6  -4 76.8928 81.8303   1
  -4  -6  -6 524.445 224.796   1
   6   4   6 157.098 125.405   1
  -6  -6   4 269.939 96.4689   1
  -6  -4  -6 255.834 189.476   1
   4   6   6 153.852 127.021   1
   1   1  -7 9441.14 592.220   1
   1  -1  -7 8825.90 654.494   1
  -1  -1   7 8636.58 543.039   1
  -1   1   7 9126.75 688.269   1
   1  -1   7 9223.46 613.914   1
  -1   1  -7 9921.60 697.079   1
  -1  -1  -7 6601.84 643.285   1
   1   1   7 9197.33 688.399   1
   3   7  -1 13549.3 814.259   1
   1   3  -7 13039.3 603.591   1
  -1   3   7 13363.8 1039.50   1
   1   3   7 13324.3 978.071   1
  -3  -1  -7 16073.2 1100.98   1
  -3  -1   7 12780.9 692.450   1
  -3  -7  -1 14011.3 876.740   1
   3   7   1 13611.9 933.874   1
  -1  -3  -7 12896.6 958.190   1
   3   1   7 13024.1 861.428   1
  -3  -3  -7 114581. 3086.92   1
  -3  -3   7 111359. 1243.59   1
   3   7  -3 111238. 1885.31   1
   3   3   7 111714. 2820.59   1
  -3  -7  -3 111216. 2759.24   1
   3   7   3 115650. 3015.48   1
   1   5  -7 2074.66 212.959   1
   5   7  -1 2584.34 323.374   1
   1   5   7 2019.20 440.545   1
  -5  -7   1 2345.71 330.928   1
  -5  -7  -1 2129.62 352.012   1
  -1  -5  -7 1944.63 404.692   1
   5   7   1 2318.33 361.937   1
  -7  -5   1 2385.21 350.520   1
  -7  -5  -1 1895.62 359.143   1
  -3  -7  -5 9704.64 911.911   1
   5   7  -3 9431.08 513.997   1
  -5  -3   7 7726.81 401.431   1
  -5  -7   3 9681.19 563.864   1
  -5  -7  -3 8306.14 825.048   1
  -3  -5  -7 9598.67 946.032   1
   3   7  -5 7732.24 340.558   1
   3   7   5 9406.75 952.898   1
  -5  -3  -7 10002.0 1014.62   1
   5   3   7 8340.23 790.852   1
  -7  -5  -3 9530.56 953.340   1
   3   5   7 8220.42 891.663   1
   5   7   3 8236.12 781.165   1
  -5  -5  -7 6330.61 838.664   1
   5   5   7 6754.60 774.956   1
   7   5   5 6580.12 765.258   1
  -5  -7  -5 6797.90 809.780   1
  -7  -5  -5 8309.35 977.585   1
   5   7   5 7024.96 806.124   1
   7   7   1 46592.1 1734.66   1
  -1  -7  -7 43398.5 2013.98   1
  -7  -7   1 45774.9 1666.91   1
  -7  -7  -1 47667.2 1938.35   1
   7   7   3 29644.1 1512.84   1
  -3  -7  -7 27694.9 1725.45   1
  -7  -7   3 27225.9 1120.84   1
  -7  -7  -3 29815.0 1737.23   1
   3   7   7 28842.8 1857.98   1
  -7  -7   5 8487.30 447.250   1
   7   7   5 9337.73 942.497   1
   7   5   7 8703.00 946.381   1
  -5  -7  -7 9498.32 1108.41   1
  -7  -7  -5 10062.7 1122.51   1
  -7  -5  -7 9642.99 1179.08   1
   5   7   7 8645.66 989.803   1
   7   7   7 72024.6 2869.77   1
  -2   0  -8 22.7471 33.7762   1
   2   0   8 32.2640 49.9809   1
  -2   0   8 85.3512 89.5681   1
   2   2   8 20322.4 1163.19   1
  -2  -2   8 20549.6 776.259   1
   2   8   2 20797.9 1371.99   1
  -2   2   8 20761.8 1247.92   1
  -2  -2  -8 20273.5 1281.39   1
   2   2  -8 21234.8 846.817   1
  -4  -2   8 1083.34 183.309   1
   2   4  -8 1098.84 158.487   1
   4   8   2 1336.27 309.417   1
   4   8  -2 1331.85 230.917   1
  -4  -8  -2 1390.67 308.603   1
  -4  -2  -8 970.324 314.139   1
   2   4   8 648.956 225.599   1
  -2  -4  -8 773.516 239.114   1
   4   2   8 1062.57 287.026   1
   2   8   4 1037.50 352.836   1
  -2  -8  -6 3996.62 625.305   1
   2   8   6 4209.83 728.821   1
   6   8   2 4116.78 557.718   1
  -6  -8  -2 4154.80 568.078   1
  -6  -8   2 4119.34 447.483   1
  -2  -6  -8 4283.85 674.900   1
   6   8  -2 4251.58 417.438   1
   2   6   8 3867.90 662.621   1
  -8  -6  -2 4672.87 683.959   1
   4   6   8 894.444 310.495   1
  -6  -4   8 424.026 73.4776   1
  -6  -4  -8 791.252 355.493   1
   6   8   4 650.765 263.248   1
  -8  -6  -4 606.477 327.466   1
  -4  -8  -6 535.444 236.351   1
   6   4   8 390.677 179.749   1
   4   8   6 903.328 350.286   1
  -4  -6  -8 800.883 312.651   1
  -8  -6   4 8.29863 22.2666   1
  -6  -8  -4 715.332 275.342   1
  -8  -6  -6 3.88847 423.973   1
  -8  -6   6 736.130 132.020   1
   6   6   8 708.206 274.389   1
  -6  -8  -6 697.252 343.306   1
   8   6   6 987.938 333.449   1
  -8  -8   0 251708. 4546.82   1
   2   8   8 2119.25 590.404   1
   8   8   2 3256.23 523.521   1
  -8  -8   2 3007.42 443.754   1
  -8  -8  -2 2718.27 524.086   1
  -8  -8   4 300552. 3617.95   1
   4   8   8 303082. 6713.39   1
   1   1   9 38343.4 1572.03   1
  -1  -1   9 40047.3 1330.56   1
   1  -1   9 40640.0 1485.71   1
   1   1  -9 41053.8 1440.67   1
  -1  -1  -9 40722.3 1770.49   1
  -1   1  -9 36602.3 1523.61   1
  -1   1   9 40609.1 1632.08   1
   1  -1  -9 39422.0 1579.49   1
   3   1   9 16739.0 1085.61   1
   1   3  -9 16871.3 838.624   1
  -3   1   9 15500.4 1077.32   1
   3   9  -1 15513.4 1082.17   1
   1  -3  -9 16491.2 1081.43   1
   3   9   1 16327.1 1231.58   1
  -1  -3  -9 17498.4 1238.97   1
  -1   3   9 16779.3 1236.82   1
  -3  -1  -9 17118.0 1249.69   1
  -3  -1   9 15559.8 850.023   1
   1   3   9 16782.3 1252.07   1
  -1   3  -9 16683.1 986.802   1
  -3   1  -9 17130.2 1204.96   1
   3   3   9 140.976 72.3641   1
  -3  -3   9 218.912 78.0174   1
   3   9  -3 190.690 112.587   1
  -3  -3  -9 271.707 183.973   1
  -5  -9   1 29184.3 1256.88   1
  -5  -9  -1 28815.9 1456.29   1
  -1  -5  -9 26911.4 1634.88   1
   1   5  -9 24814.0 905.442   1
   1   5   9 26784.2 1739.51   1
   5   9   1 28176.9 1511.66   1
   5   9  -1 26876.9 1278.99   1
  -5  -9  -3 19690.0 1326.54   1
   5   3   9 18936.8 1348.63   1
  -3  -5  -9 18937.0 1471.09   1
   3   9  -5 17639.1 810.269   1
   3   9   5 18845.6 1542.18   1
  -5  -3  -9 21506.2 1664.41   1
  -3  -9  -5 18960.5 1424.09   1
  -5  -3   9 17495.4 709.509   1
   5   9   3 20303.6 1434.55   1
   3   5   9 17404.4 1427.86   1
   5   9  -3 20497.3 912.971   1
   5   5   9 72508.9 2738.43   1
  -5  -9  -5 75499.3 2919.23   1
   5   9   5 76064.2 3096.72   1
   1   7   9 234.158 265.937   1
   7   9   1 225.338 107.548   1
  -1  -7  -9 833.990 392.518   1
  -9  -7  -1 172.534 93.3641   1
  -7  -9   1 177.836 137.527   1
  -7  -9  -1 484.709 201.061   1
   7   9  -1 190.016 115.703   1
   7   9   3 953.164 281.625   1
   3   9  -7 520.015 90.4338   1
   3   9   7 419.176 221.852   1
  -9  -7  -3 617.806 299.191   1
  -9  -7   3 55.1819 50.0892   1
  -7  -9   3 801.053 187.449   1
  -7  -9  -3 577.229 277.480   1
   3   7   9 462.287 192.863   1
  -9  -7   5 2669.84 327.557   1
   7   9   5 3159.06 569.246   1
  -9  -9   1 38580.1 1809.58   1
  -9  -9  -1 38949.4 2106.06   1
  -9  -9   3 27270.6 1295.57   1
   9   9   3 27059.1 1730.44   1
  -9  -9  -3 25341.2 1851.67   1
   0   0  10 158.199 82.0803   1
   0  -2 -10 4748.46 594.665   1
   2   0  10 5383.01 610.684   1
   0   2 -10 4535.83 528.133   1
  -2   0 -10 5654.02 704.597   1
  -2   0  10 5633.44 601.119   1
   0   2  10 4635.19 614.135   1
   0   4  10 228.861 148.352   1
   0  -4 -10 111.831 137.868   1
  -4   0  10 50.5187 44.4522   1
   4   2  10 22.6481 44.8390   1
   2   4 -10 27.4393 28.0990   1
   4  10   2 31.5777 38.1257   1
  -2  -4 -10 21.8232 104.746   1
  -4  -2  10 27.7763 58.3276   1
   4   4  10 269.680 162.633   1
   4  10  -4 279.450 117.977   1
   4  10   4 468.671 227.751   1
  -4  -4 -10 84.8493 123.359   1
   0   6  10 800.172 355.700   1
   6  10   0 1706.07 355.361   1
  -6 -10   0 1132.43 287.018   1
   6  10  -2 276250. 3914.28   1
  -6 -10  -2 268716. 5040.40   1
   2   6  10 263977. 6228.22   1
   6  10   2 266492. 5172.86   1
   6  10  -4 11557.2 668.367   1
  -6 -10  -4 9344.03 1012.58   1
   4  10   6 9623.88 1247.66   1
   4  10  -6 8093.23 450.197   1
   6  10   4 10563.4 1124.49   1
   8  10   0 44.5520 50.4026   1
 -10  -8  -2 144.621 150.288   1
  -8 -10   2 63.8294 78.8446   1
   8  10   2 87.9863 126.746   1
  -8 -10  -2 47.2343 26.4500   1
 -10  -8   4 34.9785 51.4055   1
   8  10   4 259.164 232.516   1
 -10 -10   0 21621.6 1537.27   1
 -10 -10   2 126203. 3218.45   1
   1   1  11 23692.3 1342.13   1
  -1  -1  11 23732.3 1116.75   1
   1  -1 -11 23921.0 1348.53   1
   1   1 -11 24746.3 1253.53   1
  -1  -1 -11 23817.9 1470.97   1
  -1   1 -11 25289.3 1464.33   1
  -1   1  11 21575.2 1326.84   1
   1  -3 -11 22064.3 1395.17   1
  -1  -3 -11 22496.8 1518.26   1
   1   3 -11 23343.5 1143.11   1
   3   1  11 22263.9 1401.53   1
  -3  -1 -11 23109.0 1628.62   1
  -3   1  11 21553.3 1330.51   1
  -1   3 -11 22134.9 1275.26   1
  -1   3  11 21783.5 1523.65   1
  -3   1 -11 23770.4 1564.12   1
  -3  -1  11 20931.7 1100.82   1
   1   3  11 19690.3 1442.99   1
   3   3  11 26003.2 1590.76   1
  -3  -3 -11 27389.2 1900.54   1
   5  11   1 11.4330 69.9952   1
   5  11  -1 88.2561 67.9441   1
   1   5 -11 116.308 61.2027   1
   3   5  11 12341.2 1315.21   1
  -5  -3  11 10867.1 610.801   1
  -5 -11  -3 12423.5 1114.30   1
   5   3  11 11791.1 1162.05   1
   5  11   3 12865.9 1322.10   1
   5  11  -3 12211.0 865.718   1
   5  11  -5 5360.17 450.694   1
   7  11   1 31897.4 1702.43   1
   7  11  -1 29386.0 1407.80   1
  -7 -11   1 31283.3 1518.16   1
  -7 -11  -1 31324.0 1733.74   1
   7  11   3 47925.0 2362.94   1
   7  11  -3 44350.2 1555.27   1
   9  11   1 707.511 240.875   1
  -9 -11   1 467.364 200.790   1
  -9 -11  -1 528.412 296.512   1
 -11 -11   1 10228.3 1062.20   1
   0   0  12 190479. 3656.53   1
   0   0 -12 184121. 4007.93   1
   0   2 -12 136.249 57.0525   1
  -2   0 -12 224.256 149.349   1
   2   0  12 2.41997 81.3074   1
  -2   2 -12 4172.09 630.892   1
   2   2 -12 4719.98 498.809   1
   2   2  12 4134.79 615.082   1
  -2  -2  12 4999.77 511.122   1
  -2   2  12 4018.36 645.083   1
  -2  -2 -12 4999.60 752.676   1
   0  -4 -12 214568. 5046.53   1
   0   4 -12 223206. 3938.03   1
  -4   0 -12 220483. 5426.48   1
  -4   0  12 223784. 4157.75   1
   2   4  12 486.832 300.652   1
  -4  -2  12 973.137 212.794   1
   4   2  12 602.025 256.667   1
   6  12   0 41.2287 90.8938   1
   6  12  -2 18.6069 83.2827   1
  -6  -2  12 75.3126 86.8272   1
   6  12   2 262.808 207.725   1
   6  12  -4 817.854 208.258   1
  -8 -12   0 131972. 3594.12   1
   8  12   0 135414. 3476.78   1
   8  12   2 2993.60 558.085   1
   8  12  -2 2665.07 445.411   1
  -1   1  13 22391.2 1432.60   1
   1  -1 -13 23015.3 1486.30   1
   1   1  13 23439.2 1441.49   1
   1   1 -13 23754.0 1366.99   1
  -1  -1  13 22489.7 1239.68   1
  -1  -1 -13 20644.7 1506.74   1
  -1   1 -13 21360.8 1451.74   1
  -3   1 -13 3750.32 687.645   1
  -3  -1  13 4664.34 554.814   1
   1   3 -13 4143.92 536.311   1
   3   1  13 4281.65 707.021   1
   1   3  13 4331.95 729.783   1
  -3   1  13 4602.68 686.780   1
  -1   3  13 4233.66 741.978   1
  -1   3 -13 3892.62 608.713   1
   1   5 -13 23719.9 1168.51   1
  -5  -1  13 26315.1 1420.03   1
   7  13   1 5147.95 782.303   1
   7  13  -1 6055.81 746.965   1
   9  13  -1 25221.4 1624.14   1
   0   0  14 51.1407 40.9107   1
   0   2 -14 209.055 149.599   1
   0   2  14 634.393 249.178   1
  -2   0  14 285.450 179.048   1
  -2   2 -14 109424. 3655.24   1
  -2   2  14 113018. 3701.20   1
  -4   0  14 125.833 139.024   1
   8  14   0 104.519 64.9808   1
  -1  -1  15 5766.28 670.947   1
   1   1 -15 3432.09 536.706   1
  -1   1 -15 2576.83 595.177   1
  -1   1  15 5034.04 726.435   1
  -3  -1  15 16621.1 1108.76   1
  -1   3 -15 13957.3 1228.26   1
  -3   1  15 14508.5 1259.44   1
   0   0  16 130285. 3775.95   1
  -2   0  16 103.437 140.896   1
   0   0   0    0.00    0.00   0
TITL marseno_019 in Fd-3m
REM Fd-3m (#227 in standard setting)
CELL 0.41427   9.772878   9.772878   9.772878  90.0000  90.0000  90.0000
ZERR    8.00   0.000365   0.000365   0.000365   0.0000   0.0000   0.0000
LATT  4
SYMM -x+3/4,-y+1/4, z+1/2
SYMM -x+1/4, y+1/2,-z+3/4
SYMM  x+1/2,-y+3/4,-z+1/4
SYMM  z, x, y
SYMM  z+1/2,-x+3/4,-y+1/4
SYMM -z+3/4,-x+1/4, y+1/2
SYMM -z+1/4, x+1/2,-y+3/4
SYMM  y, z, x
SYMM -y+1/4, z+1/2,-x+3/4
SYMM  y+1/2,-z+3/4,-x+1/4
SYMM -y+3/4,-z+1/4, x+1/2
SYMM  y+3/4, x+1/4,-z+1/2
SYMM -y,-x,-z
SYMM  y+1/4,-x+1/2, z+3/4
SYMM -y+1/2, x+3/4, z+1/4
SYMM  x+3/4, z+1/4,-y+1/2
SYMM -x+1/2, z+3/4, y+1/4
SYMM -x,-z,-y
SYMM  x+1/4,-z+1/2, y+3/4
SYMM  z+3/4, y+1/4,-x+1/2
SYMM  z+1/4,-y+1/2, x+3/4
SYMM -z+1/2, y+3/4, x+1/4
SYMM -z,-y,-x
SFAC O As
UNIT 48.00 32.00
TREF
HKLF 4
END
;
_shelx_hkl_checksum              15742
_shelx_shelxl_version_number     2014/7
loop_
_space_group_symop_operation_xyz
'x, y, z'
'-x+3/4, -y+1/4, z+1/2'
'-x+1/4, y+1/2, -z+3/4'
'x+1/2, -y+3/4, -z+1/4'
'z, x, y'
'z+1/2, -x+3/4, -y+1/4'
'-z+3/4, -x+1/4, y+1/2'
'-z+1/4, x+1/2, -y+3/4'
'y, z, x'
'-y+1/4, z+1/2, -x+3/4'
'y+1/2, -z+3/4, -x+1/4'
'-y+3/4, -z+1/4, x+1/2'
'y+3/4, x+1/4, -z+1/2'
'-y, -x, -z'
'y+1/4, -x+1/2, z+3/4'
'-y+1/2, x+3/4, z+1/4'
'x+3/4, z+1/4, -y+1/2'
'-x+1/2, z+3/4, y+1/4'
'-x, -z, -y'
'x+1/4, -z+1/2, y+3/4'
'z+3/4, y+1/4, -x+1/2'
'z+1/4, -y+1/2, x+3/4'
'-z+1/2, y+3/4, x+1/4'
'-z, -y, -x'
'x, y+1/2, z+1/2'
'-x+3/4, -y+3/4, z+1'
'-x+1/4, y+1, -z+5/4'
'x+1/2, -y+5/4, -z+3/4'
'z, x+1/2, y+1/2'
'z+1/2, -x+5/4, -y+3/4'
'-z+3/4, -x+3/4, y+1'
'-z+1/4, x+1, -y+5/4'
'y, z+1/2, x+1/2'
'-y+1/4, z+1, -x+5/4'
'y+1/2, -z+5/4, -x+3/4'
'-y+3/4, -z+3/4, x+1'
'y+3/4, x+3/4, -z+1'
'-y, -x+1/2, -z+1/2'
'y+1/4, -x+1, z+5/4'
'-y+1/2, x+5/4, z+3/4'
'x+3/4, z+3/4, -y+1'
'-x+1/2, z+5/4, y+3/4'
'-x, -z+1/2, -y+1/2'
'x+1/4, -z+1, y+5/4'
'z+3/4, y+3/4, -x+1'
'z+1/4, -y+1, x+5/4'
'-z+1/2, y+5/4, x+3/4'
'-z, -y+1/2, -x+1/2'
'x+1/2, y, z+1/2'
'-x+5/4, -y+1/4, z+1'
'-x+3/4, y+1/2, -z+5/4'
'x+1, -y+3/4, -z+3/4'
'z+1/2, x, y+1/2'
'z+1, -x+3/4, -y+3/4'
'-z+5/4, -x+1/4, y+1'
'-z+3/4, x+1/2, -y+5/4'
'y+1/2, z, x+1/2'
'-y+3/4, z+1/2, -x+5/4'
'y+1, -z+3/4, -x+3/4'
'-y+5/4, -z+1/4, x+1'
'y+5/4, x+1/4, -z+1'
'-y+1/2, -x, -z+1/2'
'y+3/4, -x+1/2, z+5/4'
'-y+1, x+3/4, z+3/4'
'x+5/4, z+1/4, -y+1'
'-x+1, z+3/4, y+3/4'
'-x+1/2, -z, -y+1/2'
'x+3/4, -z+1/2, y+5/4'
'z+5/4, y+1/4, -x+1'
'z+3/4, -y+1/2, x+5/4'
'-z+1, y+3/4, x+3/4'
'-z+1/2, -y, -x+1/2'
'x+1/2, y+1/2, z'
'-x+5/4, -y+3/4, z+1/2'
'-x+3/4, y+1, -z+3/4'
'x+1, -y+5/4, -z+1/4'
'z+1/2, x+1/2, y'
'z+1, -x+5/4, -y+1/4'
'-z+5/4, -x+3/4, y+1/2'
'-z+3/4, x+1, -y+3/4'
'y+1/2, z+1/2, x'
'-y+3/4, z+1, -x+3/4'
'y+1, -z+5/4, -x+1/4'
'-y+5/4, -z+3/4, x+1/2'
'y+5/4, x+3/4, -z+1/2'
'-y+1/2, -x+1/2, -z'
'y+3/4, -x+1, z+3/4'
'-y+1, x+5/4, z+1/4'
'x+5/4, z+3/4, -y+1/2'
'-x+1, z+5/4, y+1/4'
'-x+1/2, -z+1/2, -y'
'x+3/4, -z+1, y+3/4'
'z+5/4, y+3/4, -x+1/2'
'z+3/4, -y+1, x+3/4'
'-z+1, y+5/4, x+1/4'
'-z+1/2, -y+1/2, -x'
'-x, -y, -z'
'x-3/4, y-1/4, -z-1/2'
'x-1/4, -y-1/2, z-3/4'
'-x-1/2, y-3/4, z-1/4'
'-z, -x, -y'
'-z-1/2, x-3/4, y-1/4'
'z-3/4, x-1/4, -y-1/2'
'z-1/4, -x-1/2, y-3/4'
'-y, -z, -x'
'y-1/4, -z-1/2, x-3/4'
'-y-1/2, z-3/4, x-1/4'
'y-3/4, z-1/4, -x-1/2'
'-y-3/4, -x-1/4, z-1/2'
'y, x, z'
'-y-1/4, x-1/2, -z-3/4'
'y-1/2, -x-3/4, -z-1/4'
'-x-3/4, -z-1/4, y-1/2'
'x-1/2, -z-3/4, -y-1/4'
'x, z, y'
'-x-1/4, z-1/2, -y-3/4'
'-z-3/4, -y-1/4, x-1/2'
'-z-1/4, y-1/2, -x-3/4'
'z-1/2, -y-3/4, -x-1/4'
'z, y, x'
'-x, -y+1/2, -z+1/2'
'x-3/4, y+1/4, -z'
'x-1/4, -y, z-1/4'
'-x-1/2, y-1/4, z+1/4'
'-z, -x+1/2, -y+1/2'
'-z-1/2, x-1/4, y+1/4'
'z-3/4, x+1/4, -y'
'z-1/4, -x, y-1/4'
'-y, -z+1/2, -x+1/2'
'y-1/4, -z, x-1/4'
'-y-1/2, z-1/4, x+1/4'
'y-3/4, z+1/4, -x'
'-y-3/4, -x+1/4, z'
'y, x+1/2, z+1/2'
'-y-1/4, x, -z-1/4'
'y-1/2, -x-1/4, -z+1/4'
'-x-3/4, -z+1/4, y'
'x-1/2, -z-1/4, -y+1/4'
'x, z+1/2, y+1/2'
'-x-1/4, z, -y-1/4'
'-z-3/4, -y+1/4, x'
'-z-1/4, y, -x-1/4'
'z-1/2, -y-1/4, -x+1/4'
'z, y+1/2, x+1/2'
'-x+1/2, -y, -z+1/2'
'x-1/4, y-1/4, -z'
'x+1/4, -y-1/2, z-1/4'
'-x, y-3/4, z+1/4'
'-z+1/2, -x, -y+1/2'
'-z, x-3/4, y+1/4'
'z-1/4, x-1/4, -y'
'z+1/4, -x-1/2, y-1/4'
'-y+1/2, -z, -x+1/2'
'y+1/4, -z-1/2, x-1/4'
'-y, z-3/4, x+1/4'
'y-1/4, z-1/4, -x'
'-y-1/4, -x-1/4, z'
'y+1/2, x, z+1/2'
'-y+1/4, x-1/2, -z-1/4'
'y, -x-3/4, -z+1/4'
'-x-1/4, -z-1/4, y'
'x, -z-3/4, -y+1/4'
'x+1/2, z, y+1/2'
'-x+1/4, z-1/2, -y-1/4'
'-z-1/4, -y-1/4, x'
'-z+1/4, y-1/2, -x-1/4'
'z, -y-3/4, -x+1/4'
'z+1/2, y, x+1/2'
'-x+1/2, -y+1/2, -z'
'x-1/4, y+1/4, -z-1/2'
'x+1/4, -y, z-3/4'
'-x, y-1/4, z-1/4'
'-z+1/2, -x+1/2, -y'
'-z, x-1/4, y-1/4'
'z-1/4, x+1/4, -y-1/2'
'z+1/4, -x, y-3/4'
'-y+1/2, -z+1/2, -x'
'y+1/4, -z, x-3/4'
'-y, z-1/4, x-1/4'
'y-1/4, z+1/4, -x-1/2'
'-y-1/4, -x+1/4, z-1/2'
'y+1/2, x+1/2, z'
'-y+1/4, x, -z-3/4'
'y, -x-1/4, -z-1/4'
'-x-1/4, -z+1/4, y-1/2'
'x, -z-1/4, -y-1/4'
'x+1/2, z+1/2, y'
'-x+1/4, z, -y-3/4'
'-z-1/4, -y+1/4, x-1/2'
'-z+1/4, y, -x-3/4'
'z, -y-1/4, -x-1/4'
'z+1/2, y+1/2, x'
loop_
_atom_site_label
_atom_site_type_symbol
_atom_site_fract_x
_atom_site_fract_y
_atom_site_fract_z
_atom_site_U_iso_or_equiv
_atom_site_adp_type
_atom_site_occupancy
_atom_site_site_symmetry_order
_atom_site_calc_flag
_atom_site_refinement_flags_posn
_atom_site_refinement_flags_adp
_atom_site_refinement_flags_occupancy
O1 O 0.3750 0.3750 0.1818(4) 0.0134(9) Uani 1 4 d S T P
As1 As 0.25642(6) 0.25642(6) 0.25642(6) 0.0110(5) Uani 1 6 d S T P
loop_
_atom_site_aniso_label
_atom_site_aniso_U_11
_atom_site_aniso_U_22
_atom_site_aniso_U_33
_atom_site_aniso_U_23
_atom_site_aniso_U_13
_atom_site_aniso_U_12
O1 0.0147(12) 0.0147(12) 0.0110(18) 0.000 0.000 -0.0019(13)
As1 0.0110(5) 0.0110(5) 0.0110(5) -0.00055(11) -0.00055(11) -0.00055(11)
loop_
_atom_type_symbol
_atom_type_description
_atom_type_scat_dispersion_real
_atom_type_scat_dispersion_imag
_atom_type_scat_source
As As 0.3110 0.7990 'International Tables Vol C Tables 4.2.6.8 and 6.1.1.4'
O O 0.0020 0.0020 'International Tables Vol C Tables 4.2.6.8 and 6.1.1.4'
loop_
_geom_angle_atom_site_label_1
_geom_angle_atom_site_label_2
_geom_angle_atom_site_label_3
_geom_angle
_geom_angle_site_symmetry_1
_geom_angle_site_symmetry_3
As1 O1 As1 132.0(2) 26_554 .
O1 As1 O1 96.19(14) . 9
O1 As1 O1 96.19(14) 5 9
O1 As1 O1 96.19(14) . 5
loop_
_geom_bond_atom_site_label_1
_geom_bond_atom_site_label_2
_geom_bond_distance
_geom_bond_site_symmetry_2
O1 As1 1.7938(16) 26_554
O1 As1 1.7938(16) .
As1 O1 1.7938(16) 5
As1 O1 1.7938(16) 9
loop_
_geom_torsion_atom_site_label_1
_geom_torsion_atom_site_label_2
_geom_torsion_atom_site_label_3
_geom_torsion_atom_site_label_4
_geom_torsion
_geom_torsion_site_symmetry_1
_geom_torsion_site_symmetry_4
As1 O1 As1 O1 48.47(9) 26_554 5
As1 O1 As1 O1 -48.47(9) 26_554 9
