#------------------------------------------------------------------------------
#$Date: 2015-09-04 08:12:49 +0300 (Fri, 04 Sep 2015) $
#$Revision: 153928 $
#$URL: svn://www.crystallography.net/cod/cif/4/51/35/4513571.cif $
#------------------------------------------------------------------------------
#
# This file is available in the Crystallography Open Database (COD),
# http://www.crystallography.net/
#
# All data on this site have been placed in the public domain by the
# contributors.
#
data_4513571
loop_
_publ_author_name
'Gu\'nka, Piotr A.'
'Dziubek, Kamil F.'
'G\/ladysiak, Andrzej'
'Dranka, Maciej'
'Piechota, Jacek'
'Hanfland, Michael'
'Katrusiak, Andrzej'
'Zachara, Janusz'
_publ_section_title
;
 Compressed Arsenolite As4O6and Its Helium Clathrate As4O6&#x00B7;2He
;
_journal_issue                   8
_journal_name_full               'Crystal Growth &amp; Design'
_journal_page_first              3740
_journal_paper_doi               10.1021/acs.cgd.5b00390
_journal_volume                  15
_journal_year                    2015
_chemical_formula_moiety         'As4 O6'
_chemical_formula_sum            'As4 O6'
_chemical_formula_weight         395.68
_chemical_name_common            arsenolite
_space_group_crystal_system      cubic
_space_group_IT_number           227
_space_group_name_Hall           '-F 4vw 2vw 3'
_space_group_name_H-M_alt        'F d -3 m'
_symmetry_space_group_name_Hall  '-F 4vw 2vw 3'
_symmetry_space_group_name_H-M   'F d -3 m :2'
_atom_sites_solution_primary     direct
_audit_creation_date             2014-10-15
_audit_creation_method
;
Olex2 1.2-beta
(compiled 2014.09.19 svn.r3010 for OlexSys, GUI svn.r4874)
;
_cell_angle_alpha                90
_cell_angle_beta                 90
_cell_angle_gamma                90
_cell_formula_units_Z            8
_cell_length_a                   10.5186(2)
_cell_length_b                   10.5186(2)
_cell_length_c                   10.5186(2)
_cell_measurement_pressure       3.28e6(9)
_cell_measurement_reflns_used    440
_cell_measurement_temperature    293(2)
_cell_measurement_theta_max      19.9440
_cell_measurement_theta_min      3.7380
_cell_volume                     1163.79(4)
_computing_cell_refinement
;
CrysAlisPro, Agilent Technologies,
Version 1.171.37.34 (release 22-05-2014 CrysAlis171 .NET)
(compiled May 22 2014,16:03:01)
;
_computing_data_collection
;
CrysAlisPro, Agilent Technologies,
Version 1.171.37.34 (release 22-05-2014 CrysAlis171 .NET)
(compiled May 22 2014,16:03:01)
;
_computing_data_reduction
;
CrysAlisPro, Agilent Technologies,
Version 1.171.37.34 (release 22-05-2014 CrysAlis171 .NET)
(compiled May 22 2014,16:03:01)
;
_computing_molecular_graphics    'Olex2 (Dolomanov et al., 2009)'
_computing_publication_material  'Olex2 (Dolomanov et al., 2009)'
_computing_structure_refinement  'ShelXL (Sheldrick, 2008)'
_computing_structure_solution    'ShelXT (Sheldrick, 2008)'
_diffrn_ambient_environment      He
_diffrn_ambient_pressure         3.28e6(9)
_diffrn_ambient_temperature      293(2)
_diffrn_detector                 'CCD plate'
_diffrn_measured_fraction_theta_full 0.913
_diffrn_measured_fraction_theta_max 0.722
_diffrn_measurement_details
;
  1 phi    148.00  212.00   0.5000    1.0000
omega____ theta____ kappa____ phi______ frames
   0.0000    0.0000    0.0000     -     128
;
_diffrn_measurement_device       'abstract diffractometer'
_diffrn_measurement_device_type
'MAR-CrysAlisPro-abstract goniometer: imported MAR images'
_diffrn_measurement_method       '\p scans'
_diffrn_orient_matrix_UB_11      0.0007057000
_diffrn_orient_matrix_UB_12      0.0230441000
_diffrn_orient_matrix_UB_13      0.0319656000
_diffrn_orient_matrix_UB_21      0.0290882000
_diffrn_orient_matrix_UB_22      -0.0218147000
_diffrn_orient_matrix_UB_23      0.0150765000
_diffrn_orient_matrix_UB_31      0.0265335000
_diffrn_orient_matrix_UB_32      0.0233288000
_diffrn_orient_matrix_UB_33      -0.0173925000
_diffrn_radiation_monochromator  synchrotron
_diffrn_radiation_probe          x-ray
_diffrn_radiation_wavelength     0.41427
_diffrn_reflns_av_R_equivalents  0.0266
_diffrn_reflns_av_unetI/netI     0.0234
_diffrn_reflns_laue_measured_fraction_full 0.913
_diffrn_reflns_laue_measured_fraction_max 0.722
_diffrn_reflns_limit_h_max       17
_diffrn_reflns_limit_h_min       -17
_diffrn_reflns_limit_k_max       14
_diffrn_reflns_limit_k_min       -15
_diffrn_reflns_limit_l_max       10
_diffrn_reflns_limit_l_min       -11
_diffrn_reflns_number            586
_diffrn_reflns_point_group_measured_fraction_full 0.913
_diffrn_reflns_point_group_measured_fraction_max 0.722
_diffrn_reflns_theta_full        14.392
_diffrn_reflns_theta_max         19.908
_diffrn_reflns_theta_min         1.955
_diffrn_source                   synchrotron
_exptl_absorpt_coefficient_mu    5.218
_exptl_absorpt_correction_T_max  1.00000
_exptl_absorpt_correction_T_min  0.51597
_exptl_absorpt_correction_type   multi-scan
_exptl_absorpt_process_details
;
CrysAlisPro, Agilent Technologies,
Version 1.171.37.34 (release 22-05-2014 CrysAlis171 .NET)
(compiled May 22 2014,16:03:01)
Empirical absorption correction using spherical harmonics,
 implemented in SCALE3 ABSPACK scaling algorithm.
;
_exptl_crystal_density_diffrn    4.517
_exptl_crystal_description       block
_exptl_crystal_F_000             1440
_exptl_crystal_size_max          0.065
_exptl_crystal_size_mid          0.04
_exptl_crystal_size_min          0.02
_refine_diff_density_max         0.801
_refine_diff_density_min         -0.739
_refine_diff_density_rms         0.209
_refine_ls_extinction_method     none
_refine_ls_goodness_of_fit_ref   1.227
_refine_ls_hydrogen_treatment    undef
_refine_ls_matrix_type           full
_refine_ls_number_parameters     8
_refine_ls_number_reflns         117
_refine_ls_number_restraints     0
_refine_ls_restrained_S_all      1.227
_refine_ls_R_factor_all          0.0339
_refine_ls_R_factor_gt           0.0284
_refine_ls_shift/su_max          0.000
_refine_ls_shift/su_mean         0.000
_refine_ls_structure_factor_coef Fsqd
_refine_ls_weighting_details
'w=1/[\s^2^(Fo^2^)+(0.0490P)^2^+11.9920P] where P=(Fo^2^+2Fc^2^)/3'
_refine_ls_weighting_scheme      calc
_refine_ls_wR_factor_gt          0.0771
_refine_ls_wR_factor_ref         0.0818
_reflns_Friedel_coverage         0.000
_reflns_number_gt                109
_reflns_number_total             117
_reflns_threshold_expression     'I > 2\s(I)'
_cod_data_source_file            cg5b00390_si_002.cif
_cod_data_source_block           marseno_011
_cod_original_cell_volume        1163.80(7)
_cod_database_code               4513571
_shelx_space_group_comment
;
The symmetry employed for this shelxl refinement is uniquely defined
by the following loop, which should always be used as a source of
symmetry information in preference to the above space-group names.
They are only intended as comments.
;
_olex2_refinement_description
;
;
_shelx_res_file
;
    marseno_011.res created by SHELXL-2014/7

TITL marseno_011_a.res in Fd-3m
CELL 0.41427 10.518631 10.518631 10.518631 90 90 90
ZERR 8 0.000209 0.000209 0.000209 0 0 0
LATT 4
SYMM 0.75-X,0.25-Y,0.5+Z
SYMM 0.25-X,0.5+Y,0.75-Z
SYMM 0.5+X,0.75-Y,0.25-Z
SYMM +Z,+X,+Y
SYMM 0.5+Z,0.75-X,0.25-Y
SYMM 0.75-Z,0.25-X,0.5+Y
SYMM 0.25-Z,0.5+X,0.75-Y
SYMM +Y,+Z,+X
SYMM 0.25-Y,0.5+Z,0.75-X
SYMM 0.5+Y,0.75-Z,0.25-X
SYMM 0.75-Y,0.25-Z,0.5+X
SYMM 0.75+Y,0.25+X,0.5-Z
SYMM -Y,-X,-Z
SYMM 0.25+Y,0.5-X,0.75+Z
SYMM 0.5-Y,0.75+X,0.25+Z
SYMM 0.75+X,0.25+Z,0.5-Y
SYMM 0.5-X,0.75+Z,0.25+Y
SYMM -X,-Z,-Y
SYMM 0.25+X,0.5-Z,0.75+Y
SYMM 0.75+Z,0.25+Y,0.5-X
SYMM 0.25+Z,0.5-Y,0.75+X
SYMM 0.5-Z,0.75+Y,0.25+X
SYMM -Z,-Y,-X

SFAC O As
DISP As 0.311 0.799 1882.762
DISP O 0.002 0.002 10.067
UNIT 48 32

L.S. 10
PLAN  20
REM Old TITL marseno_011 in Fd-3m #227
BOND $H
LIST 6
fmap 2
ACTA
OMIT 4 4 4
REM <HKL>E:/X-Ray_Data_Backup/ESRF_id09_2014_10/data/arsenolite/arseno_011/str
REM uct/olex2_marseno_011/marseno_011.hkl</HKL>

WGHT    0.049000   11.992000
FVAR       1.30859
AS1   2    0.266058    0.266058    0.266058    10.16667    0.01029    0.01029 =
         0.01029   -0.00076   -0.00076   -0.00076
O1    1    0.375000    0.375000    0.193074    10.25000    0.01156    0.01156 =
         0.00733    0.00000    0.00000   -0.00051
HKLF 4

REM  marseno_011_a.res in Fd-3m
REM R1 =  0.0284 for     109 Fo > 4sig(Fo)  and  0.0339 for all     117 data
REM      8 parameters refined using      0 restraints

END

WGHT      0.0492     12.0183

REM Highest difference peak  0.801,  deepest hole -0.739,  1-sigma level  0.209
Q1    1   0.1753  0.2667  0.2667  10.50000  0.05    0.80
Q2    1   0.2733  0.2733  0.3323  10.50000  0.05    0.70
Q3    1   0.3087  0.4687  0.2007  11.00000  0.05    0.67
Q4    1   0.3750  0.3750  0.0655  10.25000  0.05    0.60
Q5    1   0.5000  0.5000  0.0000  10.08333  0.05    0.58
Q6    1   0.3750  0.3750  0.0228  10.25000  0.05    0.57
Q7    1   0.3813  0.4221  0.2489  11.00000  0.05    0.54
Q8    1   0.3750  0.3750  0.1219  10.25000  0.05    0.54
Q9    1   0.3992  0.3992  0.2367  10.50000  0.05    0.51
Q10   1   0.4347  0.4707  0.1171  11.00000  0.05    0.48
Q11   1   0.3925  0.3575  0.2594  10.50000  0.05    0.42
Q12   1   0.1843  0.1843  0.2335  10.50000  0.05    0.42
Q13   1   0.3295  0.3876  0.2779  11.00000  0.05    0.41
Q14   1   0.3750  0.3750  0.2927  10.25000  0.05    0.39
Q15   1   0.4408  0.3092  0.2798  10.50000  0.05    0.35
Q16   1   0.3856  0.4088  0.0640  11.00000  0.05    0.34
Q17   1   0.4630  0.3580  0.2029  11.00000  0.05    0.34
Q18   1   0.2188  0.2188  0.0690  10.50000  0.05    0.32
Q19   1   0.4678  0.4332  0.0801  11.00000  0.05    0.30
Q20   1   0.3733  0.4888  0.1909  11.00000  0.05    0.29
;
_shelx_res_checksum              38582
_shelx_hkl_file
;
  -1   1  -1 135320. 1231.94   1
   1  -1   1 134368. 1193.39   1
   2   0   0 196.957 45.6581   1
  -2   0   0 10.4689 8.45420   1
   2  -2   0 2.84510 17.3965   1
   0  -2   2 11.1957 14.0557   1
  -2   2   0 17.1669 28.2043   1
  -1   3  -1 2744.32 246.319   1
  -3   1  -1 2548.87 236.019   1
   3   1  -1 2747.80 156.777   1
  -3  -1   1 2370.11 158.724   1
   3  -1  -1 3015.91 240.989   1
   3  -1   1 3015.47 242.289   1
   1  -3   1 2619.95 240.478   1
   3  -1   3 135895. 1862.59   1
  -1  -3   3 135427. 1298.92   1
  -3   3  -1 128186. 2137.11   1
   1  -3   3 131869. 1695.76   1
  -3   1  -3 132484. 1810.67   1
  -1   3  -3 131883. 1812.84   1
   3  -3   1 132140. 2119.86   1
   3  -3   3 45212.4 1187.16   1
  -3   3  -3 45488.7 1289.37   1
   3   3  -3 41474.7 455.608   1
  -4  -2   0 112.096 35.5086   1
   4  -2   0 91.6649 57.0605   1
  -4   0  -2 32.2503 41.3595   1
  -2  -4   2 39730.9 707.043   1
   2  -4   2 41855.6 1183.04   1
  -4   2  -2 38723.5 1162.28   1
   4   2  -2 39129.7 541.367   1
   4  -2   2 40519.2 1129.05   1
  -2   4  -2 39405.6 1174.91   1
   4  -4   2 19920.3 938.188   1
   4  -2   4 17661.0 774.468   1
  -2   4  -4 20788.1 886.870   1
   2  -4   4 18440.5 770.636   1
  -4   2  -4 18292.1 821.232   1
  -4   4  -2 21427.3 978.452   1
   2   4  -4 20533.6 594.532   1
   4   4  -4 270006. 1228.34   1
   5   1  -1 47690.3 956.266   1
   5  -1  -1 44509.2 1175.88   1
   1  -5   1 46186.7 1343.18   1
   5  -1   1 48203.3 1223.46   1
  -5  -1  -1 45638.2 1073.55   1
  -5   1   1 47476.9 1136.59   1
   5   1   1 44465.1 992.077   1
  -5   1  -1 44262.8 1242.97   1
  -5  -1   1 45814.4 969.195   1
  -5   3  -1 22152.4 996.251   1
  -3   5  -1 23206.2 948.067   1
   3  -5   1 20099.0 950.560   1
   5  -1   3 19637.0 796.126   1
  -1   5  -3 20931.0 879.175   1
   1   5  -3 21409.6 734.053   1
  -5   1  -3 21196.4 897.140   1
   1  -5   3 21040.1 827.357   1
  -1  -5   3 20271.2 667.681   1
  -5  -3   1 21706.5 530.935   1
   5  -3   1 22370.8 988.469   1
   5  -3   3 2098.97 300.133   1
   3  -5   3 2351.44 316.222   1
   3  -3   5 2163.19 280.650   1
   5   3  -3 2154.28 96.7642   1
  -3   3  -5 1903.47 284.821   1
  -5   3  -3 2235.11 321.436   1
  -3  -5   3 2241.05 157.740   1
  -3   5  -3 2479.86 343.304   1
  -5   5  -1 222756. 3416.49   1
  -1  -5   5 227267. 2440.94   1
   1  -5   5 228543. 2715.45   1
  -1   5  -5 223367. 3045.47   1
   5  -3   5 27392.6 1113.39   1
   3  -5   5 28478.5 1091.53   1
  -5   3  -5 29456.6 1252.39   1
  -5   5  -3 29534.2 1353.29   1
   3   5  -5 29689.4 762.196   1
  -3   5  -5 28976.3 1240.35   1
   5  -5   3 28328.8 1267.03   1
   5  -5   5 122027. 2557.99   1
  -5   5  -5 118247. 2799.00   1
   6   0   0 7.86866 15.0722   1
  -6   0   0 11.1261 41.1284   1
  -6  -2   0 14.2446 28.4062   1
   0  -6   2 18.2238 46.8289   1
  -6   2   0 38.0444 50.9790   1
   6   0   2 13.3576 28.7605   1
  -6   0  -2 32.4986 29.7706   1
   0  -6   4 22.5167 11.6796   1
   0   4  -6 18.6849 32.4613   1
  -6   4   0 3.10359 28.0599   1
  -2   4  -6 7516.78 574.701   1
  -2  -6   4 7312.16 390.990   1
   2   6  -4 7934.66 439.230   1
   4  -6   2 7241.14 667.378   1
   2  -6   4 7372.30 563.047   1
   6  -4   2 8177.28 674.042   1
  -6   2  -4 6804.79 599.260   1
   6  -2   4 6671.43 541.336   1
  -6  -4   2 6551.54 261.490   1
  -6   4  -2 7778.61 663.336   1
  -2   6  -4 7940.66 643.348   1
  -4   6  -2 7150.33 660.082   1
   6  -4   4 8152.65 668.806   1
  -6   4  -4 8581.48 753.557   1
   4  -4   6 8330.25 621.015   1
  -4   4  -6 9015.08 714.344   1
  -4   6  -4 9278.37 769.027   1
   4  -6   4 9039.14 712.056   1
   0  -6   6 142736. 2254.66   1
   0   6  -6 143699. 2526.77   1
   2   6  -6 207742. 2656.79   1
   2  -6   6 210432. 3013.96   1
  -2   6  -6 212231. 3457.89   1
   6  -6   2 207455. 3840.94   1
  -6   6  -2 211814. 3948.37   1
   6  -6   4 14652.2 1013.99   1
   4   6  -6 13897.7 533.258   1
   6  -4   6 14575.0 914.448   1
  -4   6  -6 15655.5 1066.47   1
  -6   4  -6 14551.3 1015.22   1
  -6   6  -4 15556.0 1096.54   1
   4  -6   6 15096.4 896.868   1
   6  -6   6 105375. 2654.34   1
  -6   6  -6 103171. 2998.92   1
   7  -1  -1 34113.5 1236.10   1
  -7   1   1 31926.7 1151.52   1
   7  -1   1 30703.2 1160.13   1
  -7  -1   1 31488.8 1024.84   1
   7   1  -1 31702.1 973.956   1
   7   1   1 31084.8 983.059   1
  -7  -1  -1 33853.7 1164.38   1
  -7   1  -1 31455.2 1261.58   1
   1  -7   3 75782.8 1993.13   1
   7  -3  -1 76164.0 2087.77   1
  -7   1  -3 74549.4 2018.11   1
  -7  -3   1 76055.9 1374.62   1
   7  -3   1 75621.0 2047.33   1
   7  -1   3 75513.8 1805.64   1
   7   1  -3 77436.7 1554.62   1
  -7   3   1 69541.7 1853.40   1
  -1   7  -3 74471.1 1748.32   1
  -1  -7   3 75868.3 1724.20   1
  -7   3  -1 75958.2 2118.90   1
  -3  -7   3 240181. 2544.95   1
   7   3  -3 242915. 1809.47   1
   3  -7   3 241978. 3819.20   1
   7  -3   3 244755. 3631.66   1
  -3   7  -3 246266. 3905.10   1
  -7   3  -3 248788. 4058.42   1
  -7  -5   1 9247.79 423.047   1
  -1  -7   5 9798.53 551.803   1
   5  -7   1 8892.08 840.771   1
   7  -5   1 8783.61 798.525   1
   1   7  -5 9663.26 637.105   1
  -1   5  -7 8544.18 649.487   1
   1   5  -7 9053.75 574.591   1
  -7   5  -1 8618.24 790.655   1
  -1   7  -5 9451.06 713.039   1
   1  -7   5 9257.46 637.332   1
  -3   7  -5 13547.0 950.882   1
  -5  -7   3 11148.6 372.351   1
   7   3  -5 12128.3 495.853   1
  -5   7  -3 13152.7 1021.31   1
   5  -7   3 12231.9 941.976   1
   7  -3   5 12674.5 825.631   1
   3  -7   5 12424.7 834.156   1
  -7   3  -5 12117.3 904.209   1
  -3  -7   5 13248.6 525.024   1
   7  -5   3 13276.2 954.276   1
   3   7  -5 14534.7 567.597   1
  -7   5  -3 12494.1 963.086   1
  -3   5  -7 11698.9 832.475   1
  -7   5  -5 2121.23 428.103   1
   7  -5   5 2139.65 377.673   1
  -5   5  -7 2205.17 399.955   1
   5  -5   7 2143.13 350.172   1
  -5   7  -5 1724.92 356.283   1
   5  -7   5 2175.62 391.790   1
  -1   7  -7 79622.5 2260.24   1
   1   7  -7 77563.0 1984.44   1
   1  -7   7 79969.8 1922.03   1
  -7   7  -1 74753.1 2385.13   1
   3   7  -7 119352. 2080.73   1
  -3   7  -7 120043. 3034.98   1
   7  -7   3 114995. 3102.27   1
   3  -7   7 115798. 2525.85   1
  -7   7  -3 116609. 3320.87   1
   7  -7   5 14662.0 1110.59   1
  -5   7  -7 14999.4 1195.10   1
  -7   7  -5 15000.7 1199.93   1
   5   7  -7 11964.3 494.101   1
  -7   5  -7 13415.1 1092.44   1
   5  -7   7 15077.8 1005.06   1
   7  -5   7 15439.0 1042.72   1
  -7   7  -7 121997. 3694.10   1
   7  -7   7 122544. 3171.43   1
   8   0  -2 13.7851 20.2350   1
  -8  -2   0 1.22955 28.7933   1
   2  -8   2 11426.5 913.462   1
   8  -2  -2 11614.8 840.025   1
   8   2  -2 10516.9 527.395   1
   8  -2   2 10221.2 747.836   1
  -8  -2  -2 11318.3 719.219   1
  -8   2  -2 10695.2 839.831   1
  -8  -2   2 11270.7 565.600   1
   8  -4   0 185767. 3754.02   1
   0   8  -4 183792. 2817.48   1
  -8   4   0 194260. 3405.94   1
  -8  -4   0 186573. 2563.33   1
   4  -8   2 33744.3 1684.20   1
   8  -4   2 37044.8 1616.01   1
  -4   8  -2 36632.1 1535.03   1
  -8  -4   2 36514.9 938.394   1
  -2   8  -4 34216.1 1455.51   1
   2  -8   4 33028.8 1394.96   1
  -2  -8   4 34548.4 1080.42   1
   8   2  -4 35628.4 1046.96   1
  -8   2  -4 35150.4 1564.77   1
   8  -2   4 33436.4 1375.06   1
  -8   4  -2 36604.2 1634.91   1
  -4   8  -4 97656.4 2828.54   1
  -4  -8   4 101144. 1431.85   1
  -8   4  -4 102007. 2916.07   1
   8  -4   4 100190. 2629.46   1
   4  -8   4 99031.3 2681.70   1
  -8   6   0 4.64622 41.6547   1
   2  -8   6 6055.23 571.948   1
  -8  -6   2 5490.31 286.865   1
   2   6  -8 5404.18 460.481   1
   8  -6   2 6366.67 738.380   1
  -2  -8   6 6052.12 437.409   1
  -2   8  -6 6210.91 660.394   1
  -6   8  -2 7142.53 744.078   1
   6  -8   2 6259.30 779.275   1
  -8   6  -2 6295.95 769.715   1
   2   8  -6 6123.38 511.560   1
  -2   6  -8 6558.15 649.189   1
  -8   6  -4 18473.2 1300.83   1
  -4   8  -6 18810.7 1265.04   1
   4  -6   8 17844.2 1087.60   1
   8   4  -6 14225.0 460.090   1
   4  -8   6 16443.7 1056.07   1
  -8   4  -6 16982.2 1191.09   1
  -4   6  -8 17487.2 1177.53   1
   6  -8   4 17435.0 1231.82   1
   8  -4   6 16470.9 1086.08   1
  -6   8  -4 17515.0 1311.32   1
   8  -6   4 17615.6 1244.69   1
   6  -6   8 20050.0 1227.86   1
  -6   8  -6 20360.5 1435.14   1
  -8   6  -6 18799.1 1405.83   1
   6  -8   6 18623.9 1233.46   1
   8  -6   6 18942.6 1234.38   1
  -6   6  -8 18895.3 1318.63   1
   6   6  -8 16440.0 552.821   1
   0   8  -8 47907.3 1793.86   1
  -2   8  -8 72534.2 2491.52   1
  -8   8  -2 69296.1 2498.78   1
   8  -8   2 65319.6 2633.50   1
   2  -8   8 71804.8 2061.26   1
   2   8  -8 70038.6 1896.17   1
  -4   8  -8 73675.1 2705.70   1
   4   8  -8 74540.2 1621.80   1
   4  -8   8 73750.6 2249.18   1
   8  -8   4 74096.6 2726.98   1
  -8   8  -4 72697.3 2882.76   1
  -6   8  -8 37922.0 2087.88   1
   8  -8   6 33405.2 1829.50   1
   6  -8   8 37037.2 1758.96   1
   8  -6   8 35448.3 1782.18   1
  -9   1  -1 106285. 2624.33   1
   9  -1   1 106132. 2394.34   1
   9   1  -1 110087. 2068.23   1
  -9  -1  -1 111802. 2490.37   1
   9  -1  -1 111639. 2487.12   1
  -9   1   1 110511. 2443.40   1
   9   1   1 110692. 2173.54   1
  -9  -1   1 110336. 2316.87   1
  -1  -9   3 60963.7 1945.25   1
   9  -1  -3 54141.2 1836.53   1
  -9  -3   1 57971.7 1485.73   1
   1  -9   3 53901.4 1964.95   1
  -9   3   1 62663.2 1942.37   1
   9  -3  -1 60760.2 2184.90   1
   9   1  -3 58983.8 1546.33   1
  -9   1  -3 59182.6 2066.89   1
   9  -1   3 53966.2 1731.52   1
   9  -3   1 58612.1 2024.67   1
  -9  -3  -1 59780.5 1737.85   1
  -9  -1  -3 58241.2 1938.09   1
  -9   3  -1 59057.8 2131.94   1
  -3  -9   3 3595.51 408.902   1
  -3   9  -3 2749.12 430.332   1
  -9   3  -3 3071.96 513.384   1
   9   3  -3 3239.66 269.669   1
   3  -9   3 2569.72 497.639   1
   9  -3   3 3118.95 444.156   1
   9  -5   1 91579.4 2749.36   1
  -9  -5   1 93743.0 1665.88   1
   1   9  -5 98985.1 2064.28   1
  -1  -9   5 94463.3 2047.89   1
   1  -9   5 95387.1 2351.81   1
  -1   9  -5 97828.5 2411.73   1
  -9   5  -1 92560.7 2828.14   1
  -9   5  -3 30881.7 1677.33   1
   5  -9   3 29760.0 1683.61   1
  -9   3  -5 30147.1 1625.68   1
   9   3  -5 31857.8 886.350   1
  -5   9  -3 33926.3 1654.17   1
   9  -3   5 30710.2 1475.85   1
   3  -9   5 31111.2 1499.04   1
  -3   9  -5 31057.3 1600.21   1
   9  -5   3 31573.5 1640.69   1
  -3  -9   5 32008.9 1004.97   1
  -9   5  -5 137314. 3755.89   1
   9  -5   5 144577. 3418.29   1
   5  -9   5 140365. 3480.00   1
  -5   9  -5 141537. 3800.18   1
   1  -9   7 1466.46 277.624   1
  -9   7  -1 1912.40 423.285   1
  -1   7  -9 1580.37 328.669   1
   1   7  -9 808.013 203.653   1
   1   9  -7 1460.08 290.872   1
  -1  -9   7 1790.43 269.815   1
  -1   9  -7 1657.69 337.137   1
   9  -7   1 1320.66 395.410   1
   3  -9   7 7523.89 718.797   1
   7  -9   3 7208.38 891.901   1
  -3   7  -9 7836.08 812.761   1
  -3   9  -7 7739.00 827.746   1
   3   7  -9 7085.96 546.113   1
   9  -7   3 8060.72 888.737   1
  -7   9  -3 7287.13 836.330   1
   3   9  -7 7343.58 503.303   1
  -9   7  -3 7122.22 904.498   1
   9  -7   5 1391.03 380.581   1
  -5   7  -9 1013.81 330.893   1
   9  -5   7 1681.59 377.811   1
   5  -9   7 1400.43 335.978   1
  -7   9  -5 1369.93 407.460   1
  -5   9  -7 1594.85 397.319   1
   7  -9   5 1185.30 353.273   1
   5   7  -9 1297.75 201.941   1
   7  -9   7 22.2711 63.4618   1
   7   7  -9 64.2366 32.3626   1
   7  -7   9 3.06749 299.723   1
   1   9  -9 50661.5 1820.27   1
  -1   9  -9 56048.0 2179.67   1
   3   9  -9 35746.3 1362.59   1
   3  -9   9 35419.0 1618.77   1
  -3   9  -9 35555.7 1917.07   1
   5  -9   9 78704.7 2598.31   1
  10   0   0 1.63200 21.8820   1
 -10   0   0 126.792 93.5344   1
  10   2   0 16809.3 842.761   1
 -10  -2   0 18306.3 1025.96   1
 -10   0  -2 19301.1 1227.39   1
  10   0  -2 19258.7 1018.64   1
  10  -2   0 19624.1 1167.38   1
  10   0   2 18430.0 1008.37   1
 -10   0   2 21040.3 1037.29   1
 -10   2   0 17796.6 1185.31   1
 -10   2  -2 99586.0 2891.80   1
  10  -2  -2 99954.3 2772.24   1
  10  -2   2 99596.8 2596.27   1
  10   2  -2 98261.7 1854.72   1
 -10  -2  -2 102591. 2644.55   1
 -10  -2   2 105681. 2038.73   1
 -10  -4   0 80.7933 67.9031   1
 -10   4   0 74.8938 99.9411   1
  10  -4   0 13.4036 28.4254   1
  -2 -10   4 10387.3 757.977   1
   2 -10   4 10328.3 939.607   1
 -10   2  -4 11226.3 989.813   1
  10   2  -4 10361.1 623.038   1
  10  -2   4 10437.6 849.608   1
  10  -4   2 9536.72 890.551   1
 -10  -4   2 10828.5 647.159   1
 -10   4  -2 9513.05 952.167   1
  -4  10  -4 2210.88 426.915   1
  -4 -10   4 1831.41 268.283   1
 -10   4  -4 2463.26 509.526   1
  10  -4   4 2462.10 454.224   1
   4 -10   4 1516.63 367.200   1
  10  -6   0 29171.9 1856.01   1
   0  10  -6 29139.8 1271.27   1
 -10   6   0 29968.1 1624.53   1
   0 -10   6 29863.2 1330.88   1
   2 -10   6 42986.2 1759.71   1
  -2 -10   6 46103.7 1381.35   1
  10  -6   2 42395.5 2076.18   1
  -2  10  -6 44181.3 1891.80   1
 -10   6  -2 40558.5 2100.17   1
 -10  -6   2 42940.3 1077.92   1
  10   4  -6 57116.4 1036.50   1
  10  -6   4 58578.1 2458.64   1
   6 -10   4 58979.6 2539.85   1
  -4 -10   6 59771.3 1281.54   1
  -6 -10   4 55381.9 1042.14   1
  -6  10  -4 54369.4 2265.31   1
  10  -4   6 59417.3 2271.44   1
  -4  10  -6 59296.1 2486.14   1
   4 -10   6 57301.8 2258.18   1
   6 -10   6 20371.1 1469.90   1
   0   8 -10 155.972 108.979   1
   0 -10   8 144.518 83.5030   1
  -2   8 -10 161.860 110.543   1
  10  -8   2 174.046 146.360   1
   2  10  -8 202.014 123.138   1
   2 -10   8 305.464 148.042   1
  -2  10  -8 127.149 122.425   1
 -10  -8   2 120.259 55.6158   1
   2   8 -10 23.9151 33.9054   1
   4   8 -10 3608.80 427.218   1
   4 -10   8 3703.98 550.102   1
  -4   8 -10 3591.94 616.918   1
  -4  10  -8 4247.80 682.464   1
   6   8 -10 12717.8 693.245   1
   0  10 -10 97627.3 2884.34   1
  -2  10 -10 8536.31 934.557   1
   2  10 -10 9509.33 827.892   1
   4 -10  10 48056.0 2117.64   1
   4  10 -10 47733.3 1684.14   1
 -11   1  -1 76036.9 2493.66   1
 -11  -1  -1 78366.1 2470.65   1
  11  -1   1 79208.5 2269.83   1
  11   1  -1 81491.4 1975.35   1
 -11   1   1 72589.0 2150.76   1
  11  -1  -1 80469.0 2313.89   1
 -11  -1   1 77275.5 2274.58   1
  11   1   1 76205.5 2033.79   1
 -11   1  -3 61215.3 2494.60   1
  11  -1  -3 59097.4 2076.21   1
  11  -3  -1 57402.9 2211.82   1
 -11  -3  -1 57801.1 1949.78   1
 -11  -1  -3 62809.1 2324.89   1
 -11   3   1 59570.0 2101.06   1
  11  -1   3 57218.1 1994.92   1
  11   1  -3 59116.2 1714.68   1
  11  -3   1 57979.3 2211.49   1
 -11   3  -1 58056.0 2356.39   1
 -11  -3   1 58657.5 1744.61   1
 -11   3  -3 75594.9 2840.66   1
  11  -3   3 78634.5 2554.30   1
  11   3  -3 83828.5 1595.49   1
 -11  -5   1 6820.04 553.235   1
  11   1  -5 7933.92 688.253   1
  11  -5  -1 7951.31 995.933   1
   1 -11   5 7468.63 776.125   1
  -1 -11   5 7607.53 690.043   1
 -11   1  -5 7703.04 880.424   1
  11  -5   1 7075.42 849.974   1
 -11   5  -1 8060.76 881.599   1
  11  -5   3 20720.0 1445.29   1
 -11   3  -5 21656.3 1598.60   1
   3 -11   5 21324.3 1424.60   1
  -3 -11   5 21595.1 1022.54   1
  -3  11  -5 21567.6 1325.60   1
  11  -3   5 21906.5 1374.93   1
  11   3  -5 22663.6 870.257   1
 -11   5  -3 21755.6 1641.52   1
  -5 -11   5 27374.8 910.868   1
  11  -5   5 26396.7 1632.62   1
   5 -11   5 26540.2 1742.06   1
  -5  11  -5 26188.2 1599.76   1
   1 -11   7 50481.0 1851.85   1
  -1 -11   7 49983.9 1618.44   1
 -11  -7   1 45530.4 1308.76   1
  11  -7   1 44761.9 2372.62   1
   1  11  -7 50957.0 1691.60   1
  -1  11  -7 51829.7 1968.24   1
   3 -11   7 65638.4 2360.62   1
  11   3  -7 67356.1 1612.26   1
  -3 -11   7 64946.5 1583.91   1
  -3  11  -7 63922.1 2554.83   1
   5 -11   7 2363.35 466.887   1
   1  11  -9 3021.70 479.141   1
  -1  11  -9 3309.17 587.478   1
   1 -11   9 3389.23 478.133   1
   3  11  -9 404.587 120.311   1
  -3  11  -9 369.148 225.781   1
   3 -11   9 26.1682 65.2522   1
  -1  11 -11 6484.43 826.955   1
   1  11 -11 6435.90 797.759   1
   3  11 -11 39421.6 1849.94   1
  12   0   0 10626.0 796.059   1
 -12   0   0 11220.1 955.487   1
 -12   0   2 38.3513 49.2060   1
 -12   2   0 104.521 97.7078   1
 -12  -2   0 37.2848 78.1268   1
  12   0  -2 12.2796 44.3687   1
  12  -2   0 13.1896 66.5452   1
  12   2  -2 1512.90 255.080   1
  12  -2  -2 1179.92 314.233   1
 -12  -2   2 1313.03 249.806   1
 -12   2  -2 1515.87 399.228   1
  12  -2   2 1496.42 343.613   1
 -12  -2  -2 724.736 247.885   1
 -12  -4   0 35988.1 1519.78   1
   0 -12   4 38165.1 1997.01   1
  12   0  -4 35668.2 1529.42   1
 -12   0  -4 33326.7 1914.50   1
  12  -4   0 34110.2 1864.32   1
 -12   4   0 36310.4 1801.28   1
  12  -4   2 25729.3 1612.52   1
 -12   2  -4 27472.8 1894.17   1
  12  -4  -2 31374.8 2008.53   1
   2 -12   4 28847.4 1874.78   1
 -12  -4   2 28588.6 1151.46   1
  12  -2   4 28159.3 1554.85   1
 -12   4  -2 28573.5 1861.23   1
  12   2  -4 28004.9 1161.67   1
   4 -12   4 13304.8 1409.08   1
  12  -4   4 13891.2 1168.23   1
 -12  -6   0 97.7116 78.1680   1
  12  -6   0 24.6199 120.160   1
   0 -12   6 2.46460 68.8699   1
 -12  -6   2 1224.38 220.730   1
   2 -12   6 1414.89 348.330   1
  -2  12  -6 510.823 215.375   1
  -2 -12   6 1266.35 265.222   1
  12   2  -6 1152.78 236.642   1
  -4 -12   6 15576.2 815.791   1
   4 -12   6 14160.3 1256.02   1
   0 -12   8 4649.31 549.683   1
   0  12  -8 5433.85 607.372   1
   2 -12   8 56653.7 2136.19   1
  -2 -12   8 60511.1 1792.51   1
  -2  12  -8 56102.5 2284.23   1
   4 -12   8 3461.57 571.807   1
   2 -12  10 66.9507 89.4002   1
   2  12 -10 84.2877 81.5570   1
  13  -1  -1 53325.8 2059.34   1
 -13  -1  -1 53982.3 2197.81   1
  13   1   1 55875.7 1974.58   1
  13  -1   1 51488.1 1996.54   1
  13   1  -1 54643.8 1784.87   1
 -13   1   1 51858.1 1986.41   1
 -13  -1   1 52043.1 2007.52   1
 -13   1  -1 56237.6 2450.53   1
  13   1  -3 24625.5 1207.11   1
  13  -3   1 25013.7 1592.75   1
 -13   1  -3 27637.0 1868.86   1
 -13  -3  -1 24414.3 1436.95   1
 -13  -1  -3 25447.9 1694.32   1
  13  -1  -3 24737.3 1405.47   1
  13  -3  -1 25738.2 1615.79   1
 -13   3   1 24077.0 1481.74   1
 -13   3  -1 23485.9 1644.93   1
 -13  -3   1 26214.7 1369.37   1
  13  -1   3 25345.2 1463.20   1
  13  -3   3 44817.6 2086.27   1
  13   3  -3 448.657 188.313   1
  13  -5  -1 50952.8 2643.41   1
   1 -13   5 44882.6 2188.44   1
  -1 -13   5 48161.7 2025.92   1
  13   1  -5 50588.2 1769.73   1
 -13  -5   1 52569.6 1815.51   1
  13   3  -5 23084.0 977.311   1
   3 -13   5 25731.6 1830.91   1
  -3 -13   5 22764.4 1287.34   1
   1 -13   7 9337.32 932.574   1
  -1 -13   7 9785.73 821.616   1
  -3 -13   7 7420.35 632.281   1
   3 -13   7 7365.84 915.304   1
   1 -13   9 24161.8 1392.98   1
  -1  13  -9 22878.8 1421.28   1
  -1 -13   9 25266.5 1319.29   1
   1  13 -11 322.187 133.693   1
  14   0   0 2.34143 52.4859   1
 -14   0   0 98.3737 147.545   1
  14   0   2 9208.59 892.448   1
 -14   0  -2 8727.96 993.778   1
  14  -2   0 8343.52 898.318   1
  14   0  -2 9222.03 820.781   1
 -14   2   0 9850.40 997.783   1
 -14  -2   0 8996.76 906.855   1
  14  -2  -2 3488.08 561.896   1
 -14  -2  -2 3096.68 582.784   1
 -14  -2   2 4168.30 511.872   1
  14   2  -2 3530.25 439.921   1
  14  -2   2 3389.42 542.516   1
  14   0  -4 166.380 133.158   1
 -14  -4   0 488.180 259.604   1
  14  -4  -2 66.9672 94.1973   1
  14   2  -4 506.581 183.355   1
   0 -14   6 44483.8 2123.33   1
   2 -14   6 645.417 316.705   1
  -2 -14   6 641.220 233.793   1
   2 -14   8 9224.83 983.557   1
  -2 -14   8 8760.67 784.106   1
   0 -14  10 48863.8 2133.12   1
   0  14 -10 46832.3 2116.81   1
  15  -1  -1 25746.0 1525.43   1
  15  -1   1 25522.0 1525.27   1
  15   1  -1 28345.4 1417.41   1
 -15   1   1 27531.3 1590.22   1
 -15  -1   1 29286.2 1563.19   1
 -15  -1  -1 26066.3 1703.81   1
 -15  -3  -1 24099.6 1554.79   1
  15   1  -3 25524.8 1328.69   1
 -15  -3   1 25735.4 1500.67   1
  15  -1  -3 20840.4 1375.21   1
  15  -3  -1 21926.7 1604.68   1
  15   1  -5 24778.2 1369.33   1
  -1 -15   7 11736.4 1057.34   1
   1 -15   7 9990.21 1093.16   1
 -16   0   0 3334.51 588.815   1
  16   0   0 2270.56 435.127   1
  16   2  -2 37.8213 43.3028   1
  16  -2  -2 99.8020 116.250   1
  16   0  -4 2079.98 411.937   1
 -16  -4   0 2079.82 488.284   1
  17   1  -1 28634.8 1623.75   1
 -17  -1   1 30460.6 1780.74   1
  17  -1  -3 13174.0 1143.69   1
  17   1  -3 16495.2 1178.72   1
   0   0   0    0.00    0.00   0
TITL marseno_011 in Fd-3m
REM Fd-3m (#227 in standard setting)
CELL 0.41427  10.518631  10.518631  10.518631  90.0000  90.0000  90.0000
ZERR    5.00   0.000209   0.000209   0.000209   0.0000   0.0000   0.0000
LATT  4
SYMM -x+3/4,-y+1/4, z+1/2
SYMM -x+1/4, y+1/2,-z+3/4
SYMM  x+1/2,-y+3/4,-z+1/4
SYMM  z, x, y
SYMM  z+1/2,-x+3/4,-y+1/4
SYMM -z+3/4,-x+1/4, y+1/2
SYMM -z+1/4, x+1/2,-y+3/4
SYMM  y, z, x
SYMM -y+1/4, z+1/2,-x+3/4
SYMM  y+1/2,-z+3/4,-x+1/4
SYMM -y+3/4,-z+1/4, x+1/2
SYMM  y+3/4, x+1/4,-z+1/2
SYMM -y,-x,-z
SYMM  y+1/4,-x+1/2, z+3/4
SYMM -y+1/2, x+3/4, z+1/4
SYMM  x+3/4, z+1/4,-y+1/2
SYMM -x+1/2, z+3/4, y+1/4
SYMM -x,-z,-y
SYMM  x+1/4,-z+1/2, y+3/4
SYMM  z+3/4, y+1/4,-x+1/2
SYMM  z+1/4,-y+1/2, x+3/4
SYMM -z+1/2, y+3/4, x+1/4
SYMM -z,-y,-x
SFAC O As
UNIT 30.00 20.00
TREF
HKLF 4
END
;
_shelx_hkl_checksum              30878
_shelx_shelxl_version_number     2014/7
loop_
_space_group_symop_operation_xyz
'x, y, z'
'-x+3/4, -y+1/4, z+1/2'
'-x+1/4, y+1/2, -z+3/4'
'x+1/2, -y+3/4, -z+1/4'
'z, x, y'
'z+1/2, -x+3/4, -y+1/4'
'-z+3/4, -x+1/4, y+1/2'
'-z+1/4, x+1/2, -y+3/4'
'y, z, x'
'-y+1/4, z+1/2, -x+3/4'
'y+1/2, -z+3/4, -x+1/4'
'-y+3/4, -z+1/4, x+1/2'
'y+3/4, x+1/4, -z+1/2'
'-y, -x, -z'
'y+1/4, -x+1/2, z+3/4'
'-y+1/2, x+3/4, z+1/4'
'x+3/4, z+1/4, -y+1/2'
'-x+1/2, z+3/4, y+1/4'
'-x, -z, -y'
'x+1/4, -z+1/2, y+3/4'
'z+3/4, y+1/4, -x+1/2'
'z+1/4, -y+1/2, x+3/4'
'-z+1/2, y+3/4, x+1/4'
'-z, -y, -x'
'x, y+1/2, z+1/2'
'-x+3/4, -y+3/4, z+1'
'-x+1/4, y+1, -z+5/4'
'x+1/2, -y+5/4, -z+3/4'
'z, x+1/2, y+1/2'
'z+1/2, -x+5/4, -y+3/4'
'-z+3/4, -x+3/4, y+1'
'-z+1/4, x+1, -y+5/4'
'y, z+1/2, x+1/2'
'-y+1/4, z+1, -x+5/4'
'y+1/2, -z+5/4, -x+3/4'
'-y+3/4, -z+3/4, x+1'
'y+3/4, x+3/4, -z+1'
'-y, -x+1/2, -z+1/2'
'y+1/4, -x+1, z+5/4'
'-y+1/2, x+5/4, z+3/4'
'x+3/4, z+3/4, -y+1'
'-x+1/2, z+5/4, y+3/4'
'-x, -z+1/2, -y+1/2'
'x+1/4, -z+1, y+5/4'
'z+3/4, y+3/4, -x+1'
'z+1/4, -y+1, x+5/4'
'-z+1/2, y+5/4, x+3/4'
'-z, -y+1/2, -x+1/2'
'x+1/2, y, z+1/2'
'-x+5/4, -y+1/4, z+1'
'-x+3/4, y+1/2, -z+5/4'
'x+1, -y+3/4, -z+3/4'
'z+1/2, x, y+1/2'
'z+1, -x+3/4, -y+3/4'
'-z+5/4, -x+1/4, y+1'
'-z+3/4, x+1/2, -y+5/4'
'y+1/2, z, x+1/2'
'-y+3/4, z+1/2, -x+5/4'
'y+1, -z+3/4, -x+3/4'
'-y+5/4, -z+1/4, x+1'
'y+5/4, x+1/4, -z+1'
'-y+1/2, -x, -z+1/2'
'y+3/4, -x+1/2, z+5/4'
'-y+1, x+3/4, z+3/4'
'x+5/4, z+1/4, -y+1'
'-x+1, z+3/4, y+3/4'
'-x+1/2, -z, -y+1/2'
'x+3/4, -z+1/2, y+5/4'
'z+5/4, y+1/4, -x+1'
'z+3/4, -y+1/2, x+5/4'
'-z+1, y+3/4, x+3/4'
'-z+1/2, -y, -x+1/2'
'x+1/2, y+1/2, z'
'-x+5/4, -y+3/4, z+1/2'
'-x+3/4, y+1, -z+3/4'
'x+1, -y+5/4, -z+1/4'
'z+1/2, x+1/2, y'
'z+1, -x+5/4, -y+1/4'
'-z+5/4, -x+3/4, y+1/2'
'-z+3/4, x+1, -y+3/4'
'y+1/2, z+1/2, x'
'-y+3/4, z+1, -x+3/4'
'y+1, -z+5/4, -x+1/4'
'-y+5/4, -z+3/4, x+1/2'
'y+5/4, x+3/4, -z+1/2'
'-y+1/2, -x+1/2, -z'
'y+3/4, -x+1, z+3/4'
'-y+1, x+5/4, z+1/4'
'x+5/4, z+3/4, -y+1/2'
'-x+1, z+5/4, y+1/4'
'-x+1/2, -z+1/2, -y'
'x+3/4, -z+1, y+3/4'
'z+5/4, y+3/4, -x+1/2'
'z+3/4, -y+1, x+3/4'
'-z+1, y+5/4, x+1/4'
'-z+1/2, -y+1/2, -x'
'-x, -y, -z'
'x-3/4, y-1/4, -z-1/2'
'x-1/4, -y-1/2, z-3/4'
'-x-1/2, y-3/4, z-1/4'
'-z, -x, -y'
'-z-1/2, x-3/4, y-1/4'
'z-3/4, x-1/4, -y-1/2'
'z-1/4, -x-1/2, y-3/4'
'-y, -z, -x'
'y-1/4, -z-1/2, x-3/4'
'-y-1/2, z-3/4, x-1/4'
'y-3/4, z-1/4, -x-1/2'
'-y-3/4, -x-1/4, z-1/2'
'y, x, z'
'-y-1/4, x-1/2, -z-3/4'
'y-1/2, -x-3/4, -z-1/4'
'-x-3/4, -z-1/4, y-1/2'
'x-1/2, -z-3/4, -y-1/4'
'x, z, y'
'-x-1/4, z-1/2, -y-3/4'
'-z-3/4, -y-1/4, x-1/2'
'-z-1/4, y-1/2, -x-3/4'
'z-1/2, -y-3/4, -x-1/4'
'z, y, x'
'-x, -y+1/2, -z+1/2'
'x-3/4, y+1/4, -z'
'x-1/4, -y, z-1/4'
'-x-1/2, y-1/4, z+1/4'
'-z, -x+1/2, -y+1/2'
'-z-1/2, x-1/4, y+1/4'
'z-3/4, x+1/4, -y'
'z-1/4, -x, y-1/4'
'-y, -z+1/2, -x+1/2'
'y-1/4, -z, x-1/4'
'-y-1/2, z-1/4, x+1/4'
'y-3/4, z+1/4, -x'
'-y-3/4, -x+1/4, z'
'y, x+1/2, z+1/2'
'-y-1/4, x, -z-1/4'
'y-1/2, -x-1/4, -z+1/4'
'-x-3/4, -z+1/4, y'
'x-1/2, -z-1/4, -y+1/4'
'x, z+1/2, y+1/2'
'-x-1/4, z, -y-1/4'
'-z-3/4, -y+1/4, x'
'-z-1/4, y, -x-1/4'
'z-1/2, -y-1/4, -x+1/4'
'z, y+1/2, x+1/2'
'-x+1/2, -y, -z+1/2'
'x-1/4, y-1/4, -z'
'x+1/4, -y-1/2, z-1/4'
'-x, y-3/4, z+1/4'
'-z+1/2, -x, -y+1/2'
'-z, x-3/4, y+1/4'
'z-1/4, x-1/4, -y'
'z+1/4, -x-1/2, y-1/4'
'-y+1/2, -z, -x+1/2'
'y+1/4, -z-1/2, x-1/4'
'-y, z-3/4, x+1/4'
'y-1/4, z-1/4, -x'
'-y-1/4, -x-1/4, z'
'y+1/2, x, z+1/2'
'-y+1/4, x-1/2, -z-1/4'
'y, -x-3/4, -z+1/4'
'-x-1/4, -z-1/4, y'
'x, -z-3/4, -y+1/4'
'x+1/2, z, y+1/2'
'-x+1/4, z-1/2, -y-1/4'
'-z-1/4, -y-1/4, x'
'-z+1/4, y-1/2, -x-1/4'
'z, -y-3/4, -x+1/4'
'z+1/2, y, x+1/2'
'-x+1/2, -y+1/2, -z'
'x-1/4, y+1/4, -z-1/2'
'x+1/4, -y, z-3/4'
'-x, y-1/4, z-1/4'
'-z+1/2, -x+1/2, -y'
'-z, x-1/4, y-1/4'
'z-1/4, x+1/4, -y-1/2'
'z+1/4, -x, y-3/4'
'-y+1/2, -z+1/2, -x'
'y+1/4, -z, x-3/4'
'-y, z-1/4, x-1/4'
'y-1/4, z+1/4, -x-1/2'
'-y-1/4, -x+1/4, z-1/2'
'y+1/2, x+1/2, z'
'-y+1/4, x, -z-3/4'
'y, -x-1/4, -z-1/4'
'-x-1/4, -z+1/4, y-1/2'
'x, -z-1/4, -y-1/4'
'x+1/2, z+1/2, y'
'-x+1/4, z, -y-3/4'
'-z-1/4, -y+1/4, x-1/2'
'-z+1/4, y, -x-3/4'
'z, -y-1/4, -x-1/4'
'z+1/2, y+1/2, x'
loop_
_atom_site_label
_atom_site_type_symbol
_atom_site_fract_x
_atom_site_fract_y
_atom_site_fract_z
_atom_site_U_iso_or_equiv
_atom_site_adp_type
_atom_site_occupancy
_atom_site_site_symmetry_order
_atom_site_calc_flag
_atom_site_refinement_flags_posn
_atom_site_refinement_flags_adp
_atom_site_refinement_flags_occupancy
As1 As 0.26606(4) 0.26606(4) 0.26606(4) 0.0103(3) Uani 1 6 d S T P
O1 O 0.3750 0.3750 0.1931(4) 0.0102(7) Uani 1 4 d S T P
loop_
_atom_site_aniso_label
_atom_site_aniso_U_11
_atom_site_aniso_U_22
_atom_site_aniso_U_33
_atom_site_aniso_U_23
_atom_site_aniso_U_13
_atom_site_aniso_U_12
As1 0.0103(3) 0.0103(3) 0.0103(3) -0.00076(13) -0.00076(13) -0.00076(13)
O1 0.0116(11) 0.0116(11) 0.0073(16) 0.000 0.000 -0.0005(14)
loop_
_atom_type_symbol
_atom_type_description
_atom_type_scat_dispersion_real
_atom_type_scat_dispersion_imag
_atom_type_scat_source
O O 0.0020 0.0020 'International Tables Vol C Tables 4.2.6.8 and 6.1.1.4'
As As 0.3110 0.7990 'International Tables Vol C Tables 4.2.6.8 and 6.1.1.4'
loop_
_geom_angle_atom_site_label_1
_geom_angle_atom_site_label_2
_geom_angle_atom_site_label_3
_geom_angle
_geom_angle_site_symmetry_1
_geom_angle_site_symmetry_3
O1 As1 O1 97.98(15) . 9
O1 As1 O1 97.98(15) 9 5
O1 As1 O1 97.98(15) . 5
As1 O1 As1 129.3(2) 26_554 .
loop_
_geom_bond_atom_site_label_1
_geom_bond_atom_site_label_2
_geom_bond_distance
_geom_bond_site_symmetry_2
As1 O1 1.7932(17) .
As1 O1 1.7932(17) 5
As1 O1 1.7932(17) 9
O1 As1 1.7932(17) 26_554
