#------------------------------------------------------------------------------
#$Date: 2015-09-04 08:12:49 +0300 (Fri, 04 Sep 2015) $
#$Revision: 153928 $
#$URL: svn://www.crystallography.net/cod/cif/4/51/35/4513585.cif $
#------------------------------------------------------------------------------
#
# This file is available in the Crystallography Open Database (COD),
# http://www.crystallography.net/
#
# All data on this site have been placed in the public domain by the
# contributors.
#
data_4513585
loop_
_publ_author_name
'Gu\'nka, Piotr A.'
'Dziubek, Kamil F.'
'G\/ladysiak, Andrzej'
'Dranka, Maciej'
'Piechota, Jacek'
'Hanfland, Michael'
'Katrusiak, Andrzej'
'Zachara, Janusz'
_publ_section_title
;
 Compressed Arsenolite As4O6and Its Helium Clathrate As4O6&#x00B7;2He
;
_journal_issue                   8
_journal_name_full               'Crystal Growth &amp; Design'
_journal_page_first              3740
_journal_paper_doi               10.1021/acs.cgd.5b00390
_journal_volume                  15
_journal_year                    2015
_chemical_formula_moiety         'As4 O6'
_chemical_formula_sum            'As4 O6'
_chemical_formula_weight         395.68
_chemical_name_common            arsenolite
_space_group_crystal_system      cubic
_space_group_IT_number           227
_space_group_name_Hall           '-F 4vw 2vw 3'
_space_group_name_H-M_alt        'F d -3 m'
_symmetry_space_group_name_Hall  '-F 4vw 2vw 3'
_symmetry_space_group_name_H-M   'F d -3 m :2'
_atom_sites_solution_primary     direct
_audit_creation_date             2014-10-15
_audit_creation_method
;
Olex2 1.2-beta
(compiled 2014.09.19 svn.r3010 for OlexSys, GUI svn.r4874)
;
_cell_angle_alpha                90
_cell_angle_beta                 90
_cell_angle_gamma                90
_cell_formula_units_Z            8
_cell_length_a                   9.5962(4)
_cell_length_b                   9.5962(4)
_cell_length_c                   9.5962(4)
_cell_measurement_pressure       2.478e7(5)
_cell_measurement_reflns_used    240
_cell_measurement_temperature    293(2)
_cell_measurement_theta_max      20.2100
_cell_measurement_theta_min      2.1280
_cell_volume                     883.69(6)
_computing_cell_refinement
;
CrysAlisPro, Agilent Technologies,
Version 1.171.37.34 (release 22-05-2014 CrysAlis171 .NET)
(compiled May 22 2014,16:03:01)
;
_computing_data_collection
;
CrysAlisPro, Agilent Technologies,
Version 1.171.37.34 (release 22-05-2014 CrysAlis171 .NET)
(compiled May 22 2014,16:03:01)
;
_computing_data_reduction
;
CrysAlisPro, Agilent Technologies,
Version 1.171.37.34 (release 22-05-2014 CrysAlis171 .NET)
(compiled May 22 2014,16:03:01)
;
_computing_molecular_graphics    'Olex2 (Dolomanov et al., 2009)'
_computing_publication_material  'Olex2 (Dolomanov et al., 2009)'
_computing_structure_refinement  'ShelXL (Sheldrick, 2008)'
_computing_structure_solution    'ShelXT (Sheldrick, 2008)'
_diffrn_ambient_environment      He
_diffrn_ambient_pressure         2.478e7(5)
_diffrn_ambient_temperature      293(2)
_diffrn_detector                 'CCD plate'
_diffrn_measured_fraction_theta_full 0.786
_diffrn_measured_fraction_theta_max 0.628
_diffrn_measurement_details
;
  1 phi    148.00  212.00   0.5000    1.0000
omega____ theta____ kappa____ phi______ frames
   0.0000    0.0000    0.0000     -     128
;
_diffrn_measurement_device       'abstract diffractometer'
_diffrn_measurement_device_type
'MAR-CrysAlisPro-abstract goniometer: imported MAR images'
_diffrn_measurement_method       '\p scans'
_diffrn_orient_matrix_UB_11      0.0008561000
_diffrn_orient_matrix_UB_12      0.0252958000
_diffrn_orient_matrix_UB_13      0.0350025000
_diffrn_orient_matrix_UB_21      0.0299643000
_diffrn_orient_matrix_UB_22      -0.0255275000
_diffrn_orient_matrix_UB_23      0.0176793000
_diffrn_orient_matrix_UB_31      0.0310808000
_diffrn_orient_matrix_UB_32      0.0239219000
_diffrn_orient_matrix_UB_33      -0.0180234000
_diffrn_radiation_monochromator  synchrotron
_diffrn_radiation_probe          x-ray
_diffrn_radiation_wavelength     0.41427
_diffrn_reflns_av_R_equivalents  0.0237
_diffrn_reflns_av_unetI/netI     0.0212
_diffrn_reflns_laue_measured_fraction_full 0.786
_diffrn_reflns_laue_measured_fraction_max 0.628
_diffrn_reflns_limit_h_max       16
_diffrn_reflns_limit_h_min       -15
_diffrn_reflns_limit_k_max       12
_diffrn_reflns_limit_k_min       -13
_diffrn_reflns_limit_l_max       9
_diffrn_reflns_limit_l_min       -10
_diffrn_reflns_number            384
_diffrn_reflns_point_group_measured_fraction_full 0.786
_diffrn_reflns_point_group_measured_fraction_max 0.628
_diffrn_reflns_theta_full        14.392
_diffrn_reflns_theta_max         19.997
_diffrn_reflns_theta_min         2.143
_diffrn_source                   synchrotron
_exptl_absorpt_coefficient_mu    6.872
_exptl_absorpt_correction_T_max  1.00000
_exptl_absorpt_correction_T_min  0.49485
_exptl_absorpt_correction_type   multi-scan
_exptl_absorpt_process_details
;
CrysAlisPro, Agilent Technologies,
Version 1.171.37.34 (release 22-05-2014 CrysAlis171 .NET)
(compiled May 22 2014,16:03:01)
Empirical absorption correction using spherical harmonics,
 implemented in SCALE3 ABSPACK scaling algorithm.
;
_exptl_crystal_density_diffrn    5.948
_exptl_crystal_description       block
_exptl_crystal_F_000             1440
_exptl_crystal_size_max          0.065
_exptl_crystal_size_mid          0.04
_exptl_crystal_size_min          0.02
_refine_diff_density_max         0.388
_refine_diff_density_min         -0.319
_refine_diff_density_rms         0.106
_refine_ls_extinction_method     none
_refine_ls_goodness_of_fit_ref   1.332
_refine_ls_hydrogen_treatment    undef
_refine_ls_matrix_type           full
_refine_ls_number_parameters     8
_refine_ls_number_reflns         81
_refine_ls_number_restraints     0
_refine_ls_restrained_S_all      1.332
_refine_ls_R_factor_all          0.0415
_refine_ls_R_factor_gt           0.0386
_refine_ls_shift/su_max          0.000
_refine_ls_shift/su_mean         0.000
_refine_ls_structure_factor_coef Fsqd
_refine_ls_weighting_details
'w=1/[\s^2^(Fo^2^)+(0.0220P)^2^+7.8560P] where P=(Fo^2^+2Fc^2^)/3'
_refine_ls_weighting_scheme      calc
_refine_ls_wR_factor_gt          0.0813
_refine_ls_wR_factor_ref         0.0828
_reflns_Friedel_coverage         0.000
_reflns_number_gt                73
_reflns_number_total             81
_reflns_threshold_expression     'I > 2\s(I)'
_cod_data_source_file            cg5b00390_si_002.cif
_cod_data_source_block           marseno_025
_cod_original_cell_volume        883.69(11)
_cod_database_code               4513585
_shelx_space_group_comment
;
The symmetry employed for this shelxl refinement is uniquely defined
by the following loop, which should always be used as a source of
symmetry information in preference to the above space-group names.
They are only intended as comments.
;
_olex2_refinement_description
;
;
_shelx_res_file
;
    marseno_025.res created by SHELXL-2014/7

TITL marseno_025_a.res in Fd-3m
CELL 0.41427 9.59623 9.59623 9.59623 90 90 90
ZERR 8 0.000385 0.000385 0.000385 0 0 0
LATT 4
SYMM 0.75-X,0.25-Y,0.5+Z
SYMM 0.25-X,0.5+Y,0.75-Z
SYMM 0.5+X,0.75-Y,0.25-Z
SYMM +Z,+X,+Y
SYMM 0.5+Z,0.75-X,0.25-Y
SYMM 0.75-Z,0.25-X,0.5+Y
SYMM 0.25-Z,0.5+X,0.75-Y
SYMM +Y,+Z,+X
SYMM 0.25-Y,0.5+Z,0.75-X
SYMM 0.5+Y,0.75-Z,0.25-X
SYMM 0.75-Y,0.25-Z,0.5+X
SYMM 0.75+Y,0.25+X,0.5-Z
SYMM -Y,-X,-Z
SYMM 0.25+Y,0.5-X,0.75+Z
SYMM 0.5-Y,0.75+X,0.25+Z
SYMM 0.75+X,0.25+Z,0.5-Y
SYMM 0.5-X,0.75+Z,0.25+Y
SYMM -X,-Z,-Y
SYMM 0.25+X,0.5-Z,0.75+Y
SYMM 0.75+Z,0.25+Y,0.5-X
SYMM 0.25+Z,0.5-Y,0.75+X
SYMM 0.5-Z,0.75+Y,0.25+X
SYMM -Z,-Y,-X

SFAC O As
DISP As 0.311 0.799 1882.762
DISP O 0.002 0.002 10.067
UNIT 48 32

L.S. 10
PLAN  20
REM Old TITL marseno_025 in Fd-3m #227
BOND $H
LIST 6
fmap 2
ACTA
OMIT 0 0 16
REM <HKL>E:/X-Ray_Data_Backup/ESRF_id09_2014_10/data/arsenolite/arseno_025/str
REM uct/olex2_marseno_025/marseno_025.hkl</HKL>

WGHT    0.022000    7.856000
FVAR       1.82370
AS1   2    0.253962    0.253962    0.253962    10.16667    0.01062    0.01062 =
         0.01062   -0.00049   -0.00049   -0.00049
O1    1    0.375000    0.375000    0.180144    10.25000    0.01501    0.01501 =
         0.01268    0.00000    0.00000   -0.00012
HKLF 4

REM  marseno_025_a.res in Fd-3m
REM R1 =  0.0386 for      73 Fo > 4sig(Fo)  and  0.0415 for all      81 data
REM      8 parameters refined using      0 restraints

END

WGHT      0.0225      7.8599

REM Highest difference peak  0.388,  deepest hole -0.319,  1-sigma level  0.106
Q1    1   0.3750  0.3750  0.3750  10.04167  0.05    0.39
Q2    1   0.2020  0.2020  0.0480  10.16667  0.05    0.36
Q3    1   0.3750  0.3750  0.2469  10.25000  0.05    0.36
Q4    1   0.3436  0.4064  0.2701  10.50000  0.05    0.34
Q5    1   0.2018  0.2018  0.2018  10.16667  0.05    0.33
Q6    1   0.4645  0.3466  0.1977  11.00000  0.05    0.31
Q7    1   0.3885  0.4539  0.2072  11.00000  0.05    0.30
Q8    1   0.2991  0.3895  0.1397  11.00000  0.05    0.29
Q9    1   0.2137  0.2137  0.2853  10.50000  0.05    0.27
Q10   1   0.2902  0.2902  0.1759  10.50000  0.05    0.27
Q11   1   0.2008  0.1621  0.1621  10.50000  0.05    0.24
Q12   1   0.2902  0.2902  0.3278  10.50000  0.05    0.24
Q13   1   0.2759  0.2340  0.1101  11.00000  0.05    0.21
Q14   1   0.3586  0.4253  0.1199  11.00000  0.05    0.21
Q15   1   0.3741  0.4464  0.1074  11.00000  0.05    0.20
Q16   1   0.4975  0.4929  0.0098  10.14286  0.05    0.20
Q17   1   0.2987  0.2987  0.2569  10.50000  0.05    0.20
Q18   1   0.2573  0.1514  0.1514  10.50000  0.05    0.20
Q19   1   0.1787  0.3020  0.2317  11.00000  0.05    0.17
Q20   1   0.3671  0.4108  0.0627  11.00000  0.05    0.17
;
_shelx_res_checksum              88449
_shelx_hkl_file
;
   1   1  -1 52633.9 422.780   1
   1  -1   1 52916.6 813.073   1
  -2   0   0 1.97669 14.9847   1
   2  -2   0 9628.33 462.993   1
   0  -2   2 9084.64 377.165   1
  -2   2   0 8946.69 440.972   1
   0   2  -2 8786.46 391.501   1
  -3   1  -1 18.8700 32.8192   1
   3   1  -1 13.0106 9.22217   1
   3  -1   1 12.4669 38.5314   1
  -3  -1   1 19.6131 18.0728   1
  -1   3  -1 78.3749 53.1871   1
  -1  -3   3 54168.5 993.690   1
  -3   3  -1 52367.1 1381.47   1
   3  -1   3 53511.8 1370.96   1
  -3   1  -3 54441.5 1360.33   1
   1  -3   3 53748.8 1229.95   1
   3  -3   1 55606.7 1451.86   1
  -1   3  -3 54862.7 1306.02   1
   1   3  -3 54095.6 1047.85   1
   3  -3   3 5361.98 445.689   1
  -3   3  -3 5282.85 449.248   1
   3   3  -3 5229.79 203.366   1
   4  -2   0 8.31943 48.2860   1
  -4   2   0 8.39101 11.5980   1
   4   0   2 21.3370 31.7774   1
   0   4  -2 34.0717 8.56250   1
  -4  -2   0 8.01965 8.86777   1
  -2  -4   2 31942.4 687.672   1
   4   2  -2 31558.8 457.302   1
  -4   2  -2 31380.1 1093.87   1
  -2   4  -2 33810.7 1124.11   1
   4  -2   2 31760.5 1056.37   1
   2  -4   2 32110.4 1093.76   1
   2  -4   4 134.426 93.7225   1
  -4   4  -2 132.669 97.0324   1
  -4  -4   2 95.1554 17.3110   1
   4  -4   2 154.733 87.7297   1
  -2   4  -4 80.5283 86.0507   1
   2   4  -4 106.564 38.8910   1
   4  -2   4 53.2813 72.2685   1
  -4   2  -4 36.7351 27.9243   1
   5  -1  -1 1045.88 186.720   1
   1  -5   1 1107.46 201.489   1
  -5  -1   1 1222.12 150.759   1
  -5  -1  -1 1237.50 180.191   1
  -5   1   1 1092.45 184.731   1
   5   1  -1 1071.59 158.271   1
   5  -1   1 1093.46 193.571   1
  -5   1  -1 1003.13 176.483   1
  -5   3  -1 6492.85 566.768   1
   5  -1   3 6050.03 495.500   1
   1   5  -3 5656.29 378.676   1
  -1  -5   3 5698.41 387.268   1
   3  -5   1 5886.77 585.193   1
  -3   5  -1 5810.56 533.228   1
  -5  -3   1 5688.84 253.893   1
  -5   1  -3 5577.88 487.717   1
   5  -3   1 6555.42 572.589   1
   1  -5   3 5458.59 466.300   1
  -1   5  -3 5626.71 473.967   1
   5  -3   3 833.254 204.995   1
   3  -3   5 854.229 212.226   1
   3  -5   3 829.642 203.511   1
  -3   3  -5 953.524 212.580   1
  -3  -5   3 946.096 116.587   1
  -3   5  -3 816.038 199.611   1
  -5   3  -3 1133.05 244.170   1
  -5   5  -1 76759.6 2110.08   1
  -1  -5   5 76195.6 1591.01   1
   5  -5   1 74036.1 2293.54   1
  -1   5  -5 78531.9 1903.18   1
   1   5  -5 75656.0 1597.75   1
   1  -5   5 76411.8 1785.24   1
   5  -5   3 468.511 171.165   1
   5  -3   5 1095.09 250.311   1
  -3   5  -5 1549.02 302.332   1
   3  -5   5 1051.41 232.552   1
  -5   5  -3 975.431 244.896   1
  -5   3  -5 1087.48 265.077   1
   3   5  -5 1281.19 166.666   1
  -5   5  -5 1827.45 395.834   1
   5   5  -5 1319.88 118.590   1
   5  -5   5 1688.81 329.286   1
   6   0   0 17.0384 47.5789   1
   0  -6   2 3630.31 386.102   1
  -6   2   0 3924.72 401.317   1
   6  -2   0 3676.19 427.987   1
   6   0  -2 3691.53 330.906   1
   6   0   2 3541.47 380.685   1
  -6  -2   0 4036.51 313.611   1
  -6   0  -2 3392.66 361.543   1
   6  -4   0 16.6589 85.3821   1
   0  -6   4 5.55924 17.1818   1
  -6   4   0 10.8437 37.3869   1
   0   6  -4 82.6570 82.7065   1
  -6   4  -2 39.0813 45.4889   1
   6  -2   4 69.4509 81.7837   1
   6  -4   2 26.3157 60.2699   1
   2   6  -4 111.833 74.7990   1
  -2   6  -4 151.708 84.5490   1
  -4  -6   4 20.1670 19.7001   1
   4  -6   4 134.768 120.031   1
   6  -4   4 2.07023 32.3737   1
  -4   4  -6 85.9284 118.564   1
  -4   6  -4 90.8930 73.6304   1
   4  -4   6 136.733 79.7331   1
   0   6  -6 19288.8 946.757   1
   0  -6   6 19000.3 926.932   1
  -4   6  -6 1983.39 378.610   1
   4   6  -6 1681.90 184.861   1
  -6   4  -6 2228.27 430.434   1
   6  -4   6 2004.39 385.015   1
   6  -6   4 2015.93 381.525   1
   4  -6   6 2408.00 404.711   1
  -6   6  -4 2335.38 441.629   1
   7   1  -1 4670.18 391.452   1
  -7   1   1 5180.69 472.356   1
   7   1   1 4048.69 393.891   1
  -7  -1   1 4287.31 360.719   1
  -7   1  -1 4381.39 472.433   1
   7  -1   1 4164.19 459.129   1
   7  -1  -1 5210.47 508.137   1
  -7  -1  -1 3807.78 385.892   1
  -7   3  -1 2986.83 431.440   1
   7  -3  -1 2601.14 415.549   1
   7  -1   3 3143.68 410.276   1
  -1   7  -3 3469.87 428.712   1
   1  -7   3 3523.08 444.618   1
   7  -3   1 2855.82 427.794   1
   7   1  -3 3216.60 295.650   1
  -7  -3   1 3539.14 296.131   1
  -1  -7   3 3188.54 368.299   1
  -7   1  -3 3045.48 417.360   1
   7  -3   3 68710.3 2101.30   1
  -3   7  -3 71476.4 2152.50   1
  -7   3  -3 74979.1 2295.45   1
  -3  -7   3 69312.6 1394.23   1
   3  -7   3 70968.0 2230.57   1
   7  -5   1 655.621 232.137   1
  -1  -7   5 1719.93 261.766   1
  -7  -5   1 1686.19 199.080   1
   1   5  -7 1380.42 242.860   1
  -7   5  -1 1236.25 272.436   1
  -1   7  -5 1484.23 283.050   1
   1  -7   5 1318.54 268.849   1
   1   7  -5 1359.11 227.109   1
  -1   5  -7 1545.40 311.357   1
   3  -7   5 5319.34 597.879   1
   7  -3   5 5037.76 600.312   1
  -5   7  -3 5822.07 660.696   1
  -3  -7   5 5722.67 385.146   1
   7   3  -5 4383.12 253.160   1
  -7   5  -3 6049.67 726.965   1
  -3   7  -5 5140.51 616.774   1
  -5  -7   3 4297.46 258.231   1
   5  -7   3 5401.21 658.736   1
  -7   3  -5 4792.45 634.304   1
  -3   5  -7 6634.36 744.363   1
   7  -5   3 5052.15 648.930   1
   3   7  -5 5037.39 374.510   1
   5  -7   5 4960.08 650.163   1
   5  -5   7 4817.92 652.413   1
   7  -5   5 4836.93 623.917   1
  -5   5  -7 5165.16 729.101   1
  -5   7  -5 5477.01 714.860   1
  -7   5  -5 6132.78 756.489   1
  -7   7  -1 23155.0 1387.06   1
   1  -7   7 25865.0 1272.92   1
   7  -7   1 24871.1 1583.57   1
   1   7  -7 24939.5 1115.76   1
  -1   7  -7 25341.7 1241.79   1
   3  -7   7 8534.99 808.368   1
   3   7  -7 7236.60 520.265   1
  -3   7  -7 8010.35 795.797   1
  -7   7  -3 7337.72 846.086   1
   7  -7   3 6270.41 786.734   1
   7  -7   5 3992.75 631.125   1
   5  -7   7 4722.59 645.949   1
  -7   5  -7 4188.69 714.922   1
   7   5  -7 2317.71 154.121   1
   5   7  -7 3015.66 247.798   1
   7  -5   7 4493.40 656.484   1
  -7   7  -5 3972.25 705.263   1
  -5   7  -7 4900.95 696.988   1
  -8  -2   0 39.6063 15.7949   1
   8   0  -2 46.2176 71.4219   1
  -8   2   0 28.3932 34.7095   1
   8  -2  -2 23793.5 1233.64   1
   8  -2   2 24620.1 1262.95   1
   8   2  -2 23497.0 783.487   1
  -8  -2   2 24401.6 797.491   1
   2  -8   2 23655.2 1371.02   1
  -8   2  -2 24219.8 1252.80   1
  -8  -4   2 84.0720 24.2158   1
  -4   8  -2 35.2684 82.2154   1
   2  -8   4 63.1032 59.7567   1
   4  -8   2 89.5635 98.4653   1
  -2   8  -4 91.7473 63.5262   1
  -8   4  -2 139.977 109.691   1
   8  -4   2 105.731 39.3664   1
  -8   2  -4 135.013 115.162   1
   8  -2   4 166.597 105.646   1
  -2  -8   6 3664.63 381.970   1
  -6   8  -2 3848.78 585.212   1
   8  -6   2 2245.27 421.922   1
  -8  -6   2 1347.59 86.8112   1
  -8   6  -2 3996.77 584.708   1
   2  -8   6 3913.50 542.958   1
  -2   8  -6 3440.12 481.017   1
   2   8  -6 3228.52 353.824   1
  -2   6  -8 3594.10 514.381   1
   6  -8   2 4005.18 683.560   1
   8  -4   6 79.1549 79.4052   1
   8  -6   4 77.8728 59.7054   1
  -8   4  -6 55.7088 81.6713   1
  -4   6  -8 49.7502 44.9167   1
   4  -8   6 343.827 215.464   1
  -6   8  -4 90.4425 79.8654   1
   4   6  -8 50.8900 35.1418   1
   6  -8   4 52.2692 122.500   1
  -4   8  -6 167.380 145.946   1
   8   4  -6 7.66556 6.73808   1
   6   6  -8 203.933 63.9046   1
   8  -6   6 87.1506 108.836   1
   2  -8   8 144.172 163.666   1
   2   8  -8 156.734 81.0740   1
  -2   8  -8 304.894 174.324   1
   9  -1   1 23198.2 1203.93   1
   9   1  -1 22610.2 971.848   1
  -9   1   1 22011.1 1116.12   1
   9   1   1 22418.9 1050.41   1
  -9  -1   1 21716.7 965.654   1
  -9   1  -1 21773.2 1197.74   1
  -9  -1  -1 22250.3 1082.79   1
   9  -1  -1 20668.1 1128.61   1
   9  -1   3 8036.75 714.174   1
  -9   3  -1 8152.66 782.846   1
  -9  -3   1 7976.05 525.695   1
   9  -1  -3 9953.42 852.300   1
  -1  -9   3 6776.34 616.991   1
   1  -9   3 7057.43 730.740   1
   9  -3  -1 7979.53 785.532   1
  -9   1  -3 7423.85 721.224   1
   9   1  -3 7898.09 575.495   1
   9  -3   1 8680.18 819.422   1
  -9  -3  -1 8622.38 652.541   1
  -3   9  -3 647.701 211.866   1
  -3  -9   3 586.852 155.897   1
  -9   3  -3 476.007 179.995   1
   9  -3   3 314.830 145.880   1
   3  -9   3 399.569 240.971   1
  -1   9  -5 9244.14 773.608   1
  -9   5  -1 8776.82 874.713   1
  -9  -5   1 8387.47 469.158   1
   1   9  -5 9082.68 687.109   1
   9  -5   1 8916.15 926.253   1
   1  -9   5 8781.98 791.226   1
  -1  -9   5 8960.33 717.849   1
   9  -5   3 9509.80 955.732   1
  -3  -9   5 10940.5 670.128   1
  -3   9  -5 10636.2 935.939   1
  -9   5  -3 9818.39 998.979   1
   9  -3   5 9876.09 921.337   1
  -5  -9   3 9425.50 557.331   1
   5  -9   3 9339.93 1069.00   1
  -9   3  -5 9283.98 977.091   1
   9   3  -5 9602.97 463.055   1
  -5   9  -3 9487.64 977.987   1
   3  -9   5 9040.64 882.631   1
   9  -5   5 42473.5 2046.90   1
  -5   9  -5 44567.4 2145.46   1
   5  -9   5 43010.9 2155.96   1
   9  -7   1 266.248 213.057   1
   1  -9   7 109.187 95.0534   1
  -1   7  -9 253.977 116.811   1
   1   9  -7 103.867 76.0189   1
  -1   9  -7 33.1320 62.2690   1
   3  -9   7 654.216 236.397   1
   7  -9   3 441.262 194.858   1
  -3   7  -9 511.458 241.594   1
  -7  -9   3 446.758 80.7574   1
   3   9  -7 857.353 187.129   1
  -3   9  -7 39.8643 118.857   1
   9  -7   3 415.384 234.933   1
   5  -9   7 924.600 325.085   1
   5   7  -9 1130.01 205.704   1
   1   9  -9 17797.5 1079.35   1
  -1   9  -9 17439.0 1170.36   1
   3  -9   9 14991.3 1318.78   1
   3   9  -9 13516.0 874.914   1
  10   0   0 70.0462 73.4906   1
 -10   0   0 208.581 125.269   1
  10   0   2 3971.96 506.856   1
 -10   2   0 3403.00 472.420   1
 -10  -2   0 3957.87 457.159   1
 -10   0  -2 3674.92 476.902   1
  10  -2   0 3376.63 509.364   1
  10   0  -2 4199.57 492.640   1
   0 -10   4 32.4829 74.7696   1
 -10  -4   0 1.32123 54.1737   1
  10  -4   0 106.354 89.4625   1
 -10   2  -4 47.3210 136.808   1
  -2 -10   4 258.626 137.551   1
   2 -10   4 63.0356 56.6959   1
  10  -2   4 68.5240 92.1792   1
 -10   4  -2 227.055 172.166   1
  10   2  -4 70.0724 84.8560   1
   4 -10   4 331.360 149.702   1
   0 -10   6 6130.66 660.679   1
   0  10  -6 5327.01 584.762   1
  10  -6   0 5284.31 796.365   1
   4 -10   6 4972.54 718.487   1
  -4 -10   6 5349.74 464.687   1
  -6 -10   4 4339.72 330.048   1
   0 -10   8 281.470 124.707   1
  -2   8 -10 193.538 190.031   1
   2 -10   8 487.203 210.915   1
   2  10  -8 228.472 116.050   1
  -2  10  -8 59.3589 103.663   1
   4   8 -10 60.8939 44.0803   1
   0  10 -10 9798.34 889.155   1
   2  10 -10 169080. 3516.49   1
  11  -1  -1 13610.0 985.595   1
  11  -1   1 12553.5 959.345   1
  11   1  -1 13825.3 840.175   1
 -11   1   1 14395.3 995.649   1
 -11  -1   1 14311.6 879.648   1
 -11   1  -1 12550.5 984.421   1
 -11  -1  -1 13577.9 957.838   1
  11   1  -3 11059.7 761.814   1
  11  -3   1 9824.97 959.364   1
  11  -1   3 10765.0 927.585   1
 -11   3  -1 10569.7 968.276   1
 -11  -3   1 9640.40 633.275   1
 -11   1  -3 9946.41 928.262   1
 -11  -3  -1 9837.68 761.075   1
  11  -1  -3 9678.18 837.796   1
 -11  -1  -3 8955.38 893.665   1
  11  -3  -1 8721.50 899.886   1
  11  -3   3 10196.1 980.212   1
 -11   3  -3 9882.20 995.894   1
  11   1  -5 94.9475 51.9926   1
   1 -11   5 161.419 116.171   1
  -1 -11   5 109.392 106.143   1
  11  -5   1 173.922 162.048   1
  -3  11  -5 5917.45 756.962   1
   3 -11   5 5710.41 785.203   1
  -3 -11   5 5944.40 561.972   1
  -5 -11   5 3966.30 391.207   1
   1 -11   7 15496.5 1184.00   1
  -1 -11   7 15530.9 1040.07   1
   1  11  -7 14452.4 992.754   1
  -1  11  -7 13423.6 1058.25   1
   3 -11   7 24236.9 1622.68   1
  -3 -11   7 23797.7 1126.24   1
   1  11  -9 455.541 152.158   1
   1 -11   9 239.980 168.551   1
   3  11  -9 598.008 212.076   1
  12   0   0 265809. 4183.92   1
 -12   0   0 264322. 4369.31   1
  12  -2   0 257.439 172.642   1
  12  -2   2 5299.88 683.149   1
  12   2  -2 5091.43 492.482   1
 -12   2  -2 5176.56 683.564   1
  12  -2  -2 4727.97 624.523   1
 -12  -2  -2 5783.11 667.393   1
 -12  -4   0 292173. 3897.11   1
 -12   0  -4 291897. 5788.73   1
  12   0  -4 291831. 4382.25   1
  12  -4   0 292288. 5632.99   1
  12  -4   2 205.399 175.354   1
  12   2  -4 60.5848 71.7219   1
   0 -12   6 5.49636 711.505   1
   2 -12   6 236.098 147.080   1
  -4 -12   6 32.7243 35.0361   1
   0 -12   8 176022. 3856.19   1
   0  12  -8 175129. 3907.48   1
  -2 -12   8 191.621 87.1081   1
   2  12 -10 230.200 213.402   1
  13  -1  -1 11105.6 952.847   1
  13  -1   1 10601.8 933.147   1
  13   1  -1 13263.7 940.412   1
 -13   1   1 10987.3 911.849   1
 -13  -1   1 11009.0 836.373   1
 -13   1  -1 10100.2 958.126   1
 -13  -1  -1 10753.6 919.346   1
 -13  -1  -3 430.682 200.946   1
 -13  -3   1 987.068 214.188   1
  13  -3   1 309.332 232.611   1
  13  -1   3 367.867 191.298   1
  13  -1  -3 693.450 245.210   1
  13  -3  -1 826.481 293.618   1
 -13  -3  -1 650.705 195.680   1
  13   1  -3 1318.90 320.333   1
  13   1  -5 18099.6 1217.13   1
   1 -13   7 1989.71 467.980   1
  -1 -13   7 3012.86 492.692   1
  -1 -13   9 11663.4 1085.25   1
  14   0   0 76.6108 95.6734   1
  14   0  -2 91.8893 73.2017   1
  14  -2  -2 177405. 4106.34   1
 -14  -2  -2 175897. 4219.14   1
  14   0  -4 17.1776 82.2476   1
  15  -1  -1 666.863 258.081   1
 -15  -1   1 1231.24 300.084   1
 -15  -1  -1 474.880 209.752   1
  15  -1  -3 8092.33 949.450   1
  16   0   0 238648. 5690.48   1
   0   0   0    0.00    0.00   0
TITL marseno_025 in Fd-3m
REM Fd-3m (#227 in standard setting)
CELL 0.41427   9.596230   9.596230   9.596230  90.0000  90.0000  90.0000
ZERR    4.00   0.000385   0.000385   0.000385   0.0000   0.0000   0.0000
LATT  4
SYMM -x+3/4,-y+1/4, z+1/2
SYMM -x+1/4, y+1/2,-z+3/4
SYMM  x+1/2,-y+3/4,-z+1/4
SYMM  z, x, y
SYMM  z+1/2,-x+3/4,-y+1/4
SYMM -z+3/4,-x+1/4, y+1/2
SYMM -z+1/4, x+1/2,-y+3/4
SYMM  y, z, x
SYMM -y+1/4, z+1/2,-x+3/4
SYMM  y+1/2,-z+3/4,-x+1/4
SYMM -y+3/4,-z+1/4, x+1/2
SYMM  y+3/4, x+1/4,-z+1/2
SYMM -y,-x,-z
SYMM  y+1/4,-x+1/2, z+3/4
SYMM -y+1/2, x+3/4, z+1/4
SYMM  x+3/4, z+1/4,-y+1/2
SYMM -x+1/2, z+3/4, y+1/4
SYMM -x,-z,-y
SYMM  x+1/4,-z+1/2, y+3/4
SYMM  z+3/4, y+1/4,-x+1/2
SYMM  z+1/4,-y+1/2, x+3/4
SYMM -z+1/2, y+3/4, x+1/4
SYMM -z,-y,-x
SFAC O As
UNIT 24.00 16.00
TREF
HKLF 4
END
;
_shelx_hkl_checksum              18404
_shelx_shelxl_version_number     2014/7
loop_
_space_group_symop_operation_xyz
'x, y, z'
'-x+3/4, -y+1/4, z+1/2'
'-x+1/4, y+1/2, -z+3/4'
'x+1/2, -y+3/4, -z+1/4'
'z, x, y'
'z+1/2, -x+3/4, -y+1/4'
'-z+3/4, -x+1/4, y+1/2'
'-z+1/4, x+1/2, -y+3/4'
'y, z, x'
'-y+1/4, z+1/2, -x+3/4'
'y+1/2, -z+3/4, -x+1/4'
'-y+3/4, -z+1/4, x+1/2'
'y+3/4, x+1/4, -z+1/2'
'-y, -x, -z'
'y+1/4, -x+1/2, z+3/4'
'-y+1/2, x+3/4, z+1/4'
'x+3/4, z+1/4, -y+1/2'
'-x+1/2, z+3/4, y+1/4'
'-x, -z, -y'
'x+1/4, -z+1/2, y+3/4'
'z+3/4, y+1/4, -x+1/2'
'z+1/4, -y+1/2, x+3/4'
'-z+1/2, y+3/4, x+1/4'
'-z, -y, -x'
'x, y+1/2, z+1/2'
'-x+3/4, -y+3/4, z+1'
'-x+1/4, y+1, -z+5/4'
'x+1/2, -y+5/4, -z+3/4'
'z, x+1/2, y+1/2'
'z+1/2, -x+5/4, -y+3/4'
'-z+3/4, -x+3/4, y+1'
'-z+1/4, x+1, -y+5/4'
'y, z+1/2, x+1/2'
'-y+1/4, z+1, -x+5/4'
'y+1/2, -z+5/4, -x+3/4'
'-y+3/4, -z+3/4, x+1'
'y+3/4, x+3/4, -z+1'
'-y, -x+1/2, -z+1/2'
'y+1/4, -x+1, z+5/4'
'-y+1/2, x+5/4, z+3/4'
'x+3/4, z+3/4, -y+1'
'-x+1/2, z+5/4, y+3/4'
'-x, -z+1/2, -y+1/2'
'x+1/4, -z+1, y+5/4'
'z+3/4, y+3/4, -x+1'
'z+1/4, -y+1, x+5/4'
'-z+1/2, y+5/4, x+3/4'
'-z, -y+1/2, -x+1/2'
'x+1/2, y, z+1/2'
'-x+5/4, -y+1/4, z+1'
'-x+3/4, y+1/2, -z+5/4'
'x+1, -y+3/4, -z+3/4'
'z+1/2, x, y+1/2'
'z+1, -x+3/4, -y+3/4'
'-z+5/4, -x+1/4, y+1'
'-z+3/4, x+1/2, -y+5/4'
'y+1/2, z, x+1/2'
'-y+3/4, z+1/2, -x+5/4'
'y+1, -z+3/4, -x+3/4'
'-y+5/4, -z+1/4, x+1'
'y+5/4, x+1/4, -z+1'
'-y+1/2, -x, -z+1/2'
'y+3/4, -x+1/2, z+5/4'
'-y+1, x+3/4, z+3/4'
'x+5/4, z+1/4, -y+1'
'-x+1, z+3/4, y+3/4'
'-x+1/2, -z, -y+1/2'
'x+3/4, -z+1/2, y+5/4'
'z+5/4, y+1/4, -x+1'
'z+3/4, -y+1/2, x+5/4'
'-z+1, y+3/4, x+3/4'
'-z+1/2, -y, -x+1/2'
'x+1/2, y+1/2, z'
'-x+5/4, -y+3/4, z+1/2'
'-x+3/4, y+1, -z+3/4'
'x+1, -y+5/4, -z+1/4'
'z+1/2, x+1/2, y'
'z+1, -x+5/4, -y+1/4'
'-z+5/4, -x+3/4, y+1/2'
'-z+3/4, x+1, -y+3/4'
'y+1/2, z+1/2, x'
'-y+3/4, z+1, -x+3/4'
'y+1, -z+5/4, -x+1/4'
'-y+5/4, -z+3/4, x+1/2'
'y+5/4, x+3/4, -z+1/2'
'-y+1/2, -x+1/2, -z'
'y+3/4, -x+1, z+3/4'
'-y+1, x+5/4, z+1/4'
'x+5/4, z+3/4, -y+1/2'
'-x+1, z+5/4, y+1/4'
'-x+1/2, -z+1/2, -y'
'x+3/4, -z+1, y+3/4'
'z+5/4, y+3/4, -x+1/2'
'z+3/4, -y+1, x+3/4'
'-z+1, y+5/4, x+1/4'
'-z+1/2, -y+1/2, -x'
'-x, -y, -z'
'x-3/4, y-1/4, -z-1/2'
'x-1/4, -y-1/2, z-3/4'
'-x-1/2, y-3/4, z-1/4'
'-z, -x, -y'
'-z-1/2, x-3/4, y-1/4'
'z-3/4, x-1/4, -y-1/2'
'z-1/4, -x-1/2, y-3/4'
'-y, -z, -x'
'y-1/4, -z-1/2, x-3/4'
'-y-1/2, z-3/4, x-1/4'
'y-3/4, z-1/4, -x-1/2'
'-y-3/4, -x-1/4, z-1/2'
'y, x, z'
'-y-1/4, x-1/2, -z-3/4'
'y-1/2, -x-3/4, -z-1/4'
'-x-3/4, -z-1/4, y-1/2'
'x-1/2, -z-3/4, -y-1/4'
'x, z, y'
'-x-1/4, z-1/2, -y-3/4'
'-z-3/4, -y-1/4, x-1/2'
'-z-1/4, y-1/2, -x-3/4'
'z-1/2, -y-3/4, -x-1/4'
'z, y, x'
'-x, -y+1/2, -z+1/2'
'x-3/4, y+1/4, -z'
'x-1/4, -y, z-1/4'
'-x-1/2, y-1/4, z+1/4'
'-z, -x+1/2, -y+1/2'
'-z-1/2, x-1/4, y+1/4'
'z-3/4, x+1/4, -y'
'z-1/4, -x, y-1/4'
'-y, -z+1/2, -x+1/2'
'y-1/4, -z, x-1/4'
'-y-1/2, z-1/4, x+1/4'
'y-3/4, z+1/4, -x'
'-y-3/4, -x+1/4, z'
'y, x+1/2, z+1/2'
'-y-1/4, x, -z-1/4'
'y-1/2, -x-1/4, -z+1/4'
'-x-3/4, -z+1/4, y'
'x-1/2, -z-1/4, -y+1/4'
'x, z+1/2, y+1/2'
'-x-1/4, z, -y-1/4'
'-z-3/4, -y+1/4, x'
'-z-1/4, y, -x-1/4'
'z-1/2, -y-1/4, -x+1/4'
'z, y+1/2, x+1/2'
'-x+1/2, -y, -z+1/2'
'x-1/4, y-1/4, -z'
'x+1/4, -y-1/2, z-1/4'
'-x, y-3/4, z+1/4'
'-z+1/2, -x, -y+1/2'
'-z, x-3/4, y+1/4'
'z-1/4, x-1/4, -y'
'z+1/4, -x-1/2, y-1/4'
'-y+1/2, -z, -x+1/2'
'y+1/4, -z-1/2, x-1/4'
'-y, z-3/4, x+1/4'
'y-1/4, z-1/4, -x'
'-y-1/4, -x-1/4, z'
'y+1/2, x, z+1/2'
'-y+1/4, x-1/2, -z-1/4'
'y, -x-3/4, -z+1/4'
'-x-1/4, -z-1/4, y'
'x, -z-3/4, -y+1/4'
'x+1/2, z, y+1/2'
'-x+1/4, z-1/2, -y-1/4'
'-z-1/4, -y-1/4, x'
'-z+1/4, y-1/2, -x-1/4'
'z, -y-3/4, -x+1/4'
'z+1/2, y, x+1/2'
'-x+1/2, -y+1/2, -z'
'x-1/4, y+1/4, -z-1/2'
'x+1/4, -y, z-3/4'
'-x, y-1/4, z-1/4'
'-z+1/2, -x+1/2, -y'
'-z, x-1/4, y-1/4'
'z-1/4, x+1/4, -y-1/2'
'z+1/4, -x, y-3/4'
'-y+1/2, -z+1/2, -x'
'y+1/4, -z, x-3/4'
'-y, z-1/4, x-1/4'
'y-1/4, z+1/4, -x-1/2'
'-y-1/4, -x+1/4, z-1/2'
'y+1/2, x+1/2, z'
'-y+1/4, x, -z-3/4'
'y, -x-1/4, -z-1/4'
'-x-1/4, -z+1/4, y-1/2'
'x, -z-1/4, -y-1/4'
'x+1/2, z+1/2, y'
'-x+1/4, z, -y-3/4'
'-z-1/4, -y+1/4, x-1/2'
'-z+1/4, y, -x-3/4'
'z, -y-1/4, -x-1/4'
'z+1/2, y+1/2, x'
loop_
_atom_site_label
_atom_site_type_symbol
_atom_site_fract_x
_atom_site_fract_y
_atom_site_fract_z
_atom_site_U_iso_or_equiv
_atom_site_adp_type
_atom_site_occupancy
_atom_site_site_symmetry_order
_atom_site_calc_flag
_atom_site_refinement_flags_posn
_atom_site_refinement_flags_adp
_atom_site_refinement_flags_occupancy
As1 As 0.25396(4) 0.25396(4) 0.25396(4) 0.0106(4) Uani 1 6 d S T P
O1 O 0.3750 0.3750 0.1801(3) 0.0142(8) Uani 1 4 d S T P
loop_
_atom_site_aniso_label
_atom_site_aniso_U_11
_atom_site_aniso_U_22
_atom_site_aniso_U_33
_atom_site_aniso_U_23
_atom_site_aniso_U_13
_atom_site_aniso_U_12
As1 0.0106(4) 0.0106(4) 0.0106(4) -0.00049(9) -0.00049(9) -0.00049(9)
O1 0.0150(10) 0.0150(10) 0.0127(16) 0.000 0.000 -0.0001(13)
loop_
_atom_type_symbol
_atom_type_description
_atom_type_scat_dispersion_real
_atom_type_scat_dispersion_imag
_atom_type_scat_source
O O 0.0020 0.0020 'International Tables Vol C Tables 4.2.6.8 and 6.1.1.4'
As As 0.3110 0.7990 'International Tables Vol C Tables 4.2.6.8 and 6.1.1.4'
loop_
_geom_angle_atom_site_label_1
_geom_angle_atom_site_label_2
_geom_angle_atom_site_label_3
_geom_angle
_geom_angle_site_symmetry_1
_geom_angle_site_symmetry_3
O1 As1 O1 95.32(13) . 9
O1 As1 O1 95.32(13) 9 5
O1 As1 O1 95.32(13) . 5
As1 O1 As1 133.34(19) . 26_554
loop_
_geom_bond_atom_site_label_1
_geom_bond_atom_site_label_2
_geom_bond_distance
_geom_bond_site_symmetry_2
As1 O1 1.7889(14) .
As1 O1 1.7889(14) 5
As1 O1 1.7889(14) 9
O1 As1 1.7889(14) 26_554
