#------------------------------------------------------------------------------
#$Date: 2015-09-04 08:12:49 +0300 (Fri, 04 Sep 2015) $
#$Revision: 153928 $
#$URL: svn://www.crystallography.net/cod/cif/4/51/35/4513591.cif $
#------------------------------------------------------------------------------
#
# This file is available in the Crystallography Open Database (COD),
# http://www.crystallography.net/
#
# All data on this site have been placed in the public domain by the
# contributors.
#
data_4513591
loop_
_publ_author_name
'Gu\'nka, Piotr A.'
'Dziubek, Kamil F.'
'G\/ladysiak, Andrzej'
'Dranka, Maciej'
'Piechota, Jacek'
'Hanfland, Michael'
'Katrusiak, Andrzej'
'Zachara, Janusz'
_publ_section_title
;
 Compressed Arsenolite As4O6and Its Helium Clathrate As4O6&#x00B7;2He
;
_journal_issue                   8
_journal_name_full               'Crystal Growth &amp; Design'
_journal_page_first              3740
_journal_paper_doi               10.1021/acs.cgd.5b00390
_journal_volume                  15
_journal_year                    2015
_chemical_formula_moiety         'As4 O6'
_chemical_formula_sum            'As4 O6'
_chemical_formula_weight         395.68
_chemical_name_common            arsenolite
_space_group_crystal_system      cubic
_space_group_IT_number           227
_space_group_name_Hall           '-F 4vw 2vw 3'
_space_group_name_H-M_alt        'F d -3 m'
_symmetry_space_group_name_Hall  '-F 4vw 2vw 3'
_symmetry_space_group_name_H-M   'F d -3 m :2'
_atom_sites_solution_primary     direct
_audit_creation_date             2014-10-15
_audit_creation_method
;
Olex2 1.2-beta
(compiled 2014.09.19 svn.r3010 for OlexSys, GUI svn.r4874)
;
_cell_angle_alpha                90
_cell_angle_beta                 90
_cell_angle_gamma                90
_cell_formula_units_Z            8
_cell_length_a                   11.0646(2)
_cell_length_b                   11.0646(2)
_cell_length_c                   11.0646(2)
_cell_measurement_pressure       100(1)
_cell_measurement_reflns_used    428
_cell_measurement_temperature    293(2)
_cell_measurement_theta_max      19.9420
_cell_measurement_theta_min      1.8630
_cell_volume                     1354.59(4)
_computing_cell_refinement
'CrysAlisPro, Agilent Technologies, Version 1.171.37.34 (release 22-05-2014 CrysAlis171 .NET) (compiled May 22 2014,16:03:01)'
_computing_data_collection
'CrysAlisPro, Agilent Technologies, Version 1.171.37.34 (release 22-05-2014 CrysAlis171 .NET) (compiled May 22 2014,16:03:01)'
_computing_data_reduction
'CrysAlisPro, Agilent Technologies, Version 1.171.37.34 (release 22-05-2014 CrysAlis171 .NET) (compiled May 22 2014,16:03:01)'
_computing_molecular_graphics    'Olex2 (Dolomanov et al., 2009)'
_computing_publication_material  'Olex2 (Dolomanov et al., 2009)'
_computing_structure_refinement  'ShelXL (Sheldrick, 2008)'
_computing_structure_solution    'ShelXT (Sheldrick, 2008)'
_diffrn_ambient_environment      He
_diffrn_ambient_pressure         100(1)
_diffrn_ambient_temperature      293(2)
_diffrn_detector                 'CCD plate'
_diffrn_measured_fraction_theta_full 0.950
_diffrn_measured_fraction_theta_max 0.670
_diffrn_measurement_details
;
  1 phi    148.00  212.00   0.5000    1.0000
omega____ theta____ kappa____ phi______ frames
   0.0000    0.0000    0.0000     -     128
;
_diffrn_measurement_device       'abstract diffractometer'
_diffrn_measurement_device_type
'MAR-CrysAlisPro-abstract goniometer: imported MAR images'
_diffrn_measurement_method       '\p scans'
_diffrn_orient_matrix_UB_11      0.0238028000
_diffrn_orient_matrix_UB_12      -0.0005136000
_diffrn_orient_matrix_UB_13      0.0289081000
_diffrn_orient_matrix_UB_21      -0.0211765000
_diffrn_orient_matrix_UB_22      -0.0257847000
_diffrn_orient_matrix_UB_23      0.0169782000
_diffrn_orient_matrix_UB_31      0.0196646000
_diffrn_orient_matrix_UB_32      -0.0271410000
_diffrn_orient_matrix_UB_33      -0.0166755000
_diffrn_radiation_monochromator  synchrotron
_diffrn_radiation_probe          x-ray
_diffrn_radiation_wavelength     0.41427
_diffrn_reflns_av_R_equivalents  0.0298
_diffrn_reflns_av_unetI/netI     0.0217
_diffrn_reflns_laue_measured_fraction_full 0.950
_diffrn_reflns_laue_measured_fraction_max 0.670
_diffrn_reflns_limit_h_max       13
_diffrn_reflns_limit_h_min       -15
_diffrn_reflns_limit_k_max       17
_diffrn_reflns_limit_k_min       -18
_diffrn_reflns_limit_l_max       11
_diffrn_reflns_limit_l_min       -13
_diffrn_reflns_number            666
_diffrn_reflns_point_group_measured_fraction_full 0.950
_diffrn_reflns_point_group_measured_fraction_max 0.670
_diffrn_reflns_theta_full        14.392
_diffrn_reflns_theta_max         20.409
_diffrn_reflns_theta_min         1.858
_diffrn_source                   synchrotron
_exptl_absorpt_coefficient_mu    4.483
_exptl_absorpt_correction_T_max  1.00000
_exptl_absorpt_correction_T_min  0.01118
_exptl_absorpt_correction_type   multi-scan
_exptl_absorpt_process_details
'CrysAlisPro, Agilent Technologies, Version 1.171.37.34 (release 22-05-2014 CrysAlis171 .NET) (compiled May 22 2014,16:03:01) Empirical absorption correction using spherical harmonics, implemented in SCALE3 ABSPACK scaling algorithm.'
_exptl_crystal_density_diffrn    3.880
_exptl_crystal_description       block
_exptl_crystal_F_000             1440
_exptl_crystal_size_max          0.065
_exptl_crystal_size_mid          0.041
_exptl_crystal_size_min          0.02
_refine_diff_density_max         0.615
_refine_diff_density_min         -0.662
_refine_diff_density_rms         0.160
_refine_ls_extinction_method     none
_refine_ls_goodness_of_fit_ref   1.202
_refine_ls_hydrogen_treatment    undef
_refine_ls_matrix_type           full
_refine_ls_number_parameters     8
_refine_ls_number_reflns         132
_refine_ls_number_restraints     0
_refine_ls_restrained_S_all      1.202
_refine_ls_R_factor_all          0.0354
_refine_ls_R_factor_gt           0.0313
_refine_ls_shift/su_max          0.000
_refine_ls_shift/su_mean         0.000
_refine_ls_structure_factor_coef Fsqd
_refine_ls_weighting_details
'w=1/[\s^2^(Fo^2^)+(0.0150P)^2^+34.5020P] where P=(Fo^2^+2Fc^2^)/3'
_refine_ls_weighting_scheme      calc
_refine_ls_wR_factor_gt          0.0609
_refine_ls_wR_factor_ref         0.0636
_reflns_Friedel_coverage         0.000
_reflns_number_gt                122
_reflns_number_total             132
_reflns_threshold_expression     'I > 2\s(I)'
_cod_data_source_file            cg5b00390_si_002.cif
_cod_data_source_block           marseno_031
_cod_original_cell_volume        1354.60(8)
_cod_database_code               4513591
_shelx_space_group_comment
;
The symmetry employed for this shelxl refinement is uniquely defined
by the following loop, which should always be used as a source of
symmetry information in preference to the above space-group names.
They are only intended as comments.
;
_olex2_refinement_description
;
;
_shelx_res_file
;
    marseno_031.res created by SHELXL-2014/7

TITL marseno_031_a.res in Fd-3m
CELL 0.41427 11.064622 11.064622 11.064622 90 90 90
ZERR 8 0.000218 0.000218 0.000218 0 0 0
LATT 4
SYMM 0.75-X,0.25-Y,0.5+Z
SYMM 0.25-X,0.5+Y,0.75-Z
SYMM 0.5+X,0.75-Y,0.25-Z
SYMM +Z,+X,+Y
SYMM 0.5+Z,0.75-X,0.25-Y
SYMM 0.75-Z,0.25-X,0.5+Y
SYMM 0.25-Z,0.5+X,0.75-Y
SYMM +Y,+Z,+X
SYMM 0.25-Y,0.5+Z,0.75-X
SYMM 0.5+Y,0.75-Z,0.25-X
SYMM 0.75-Y,0.25-Z,0.5+X
SYMM 0.75+Y,0.25+X,0.5-Z
SYMM -Y,-X,-Z
SYMM 0.25+Y,0.5-X,0.75+Z
SYMM 0.5-Y,0.75+X,0.25+Z
SYMM 0.75+X,0.25+Z,0.5-Y
SYMM 0.5-X,0.75+Z,0.25+Y
SYMM -X,-Z,-Y
SYMM 0.25+X,0.5-Z,0.75+Y
SYMM 0.75+Z,0.25+Y,0.5-X
SYMM 0.25+Z,0.5-Y,0.75+X
SYMM 0.5-Z,0.75+Y,0.25+X
SYMM -Z,-Y,-X

SFAC O As
DISP As 0.311 0.799 1882.762
DISP O 0.002 0.002 10.067
UNIT 48 32

L.S. 10
PLAN  20
REM Old TITL marseno_031 in Fd-3m #227
BOND $H
LIST 6
fmap 2
acta
OMIT 0 6 14
OMIT 4 4 4
OMIT 1 5 15
REM <HKL>E:/X-Ray_Data_Backup/ESRF_id09_2014_10/data/arsenolite/arseno_031/str
REM uct/olex2_marseno_031/marseno_031.hkl</HKL>

WGHT    0.015000   34.501999
FVAR       1.24044
AS1   2    0.272034    0.272034    0.272034    10.16667    0.01975    0.01975 =
         0.01975   -0.00144   -0.00144   -0.00144
O1    1    0.375000    0.375000    0.201174    10.25000    0.02190    0.02190 =
         0.01794    0.00000    0.00000    0.00093
HKLF 4

REM  marseno_031_a.res in Fd-3m
REM R1 =  0.0313 for     122 Fo > 4sig(Fo)  and  0.0354 for all     132 data
REM      8 parameters refined using      0 restraints

END

WGHT      0.0151     34.5135

REM Highest difference peak  0.615,  deepest hole -0.662,  1-sigma level  0.160
Q1    1   0.2110  0.2110  0.2110  10.16667  0.05    0.62
Q2    1   0.3750  0.3750 -0.0001  10.25000  0.05    0.57
Q3    1   0.1389  0.1389  0.2498  10.50000  0.05    0.55
Q4    1   0.2500  0.5000  0.2500  10.08333  0.05    0.54
Q5    1   0.3750  0.3750  0.3255  10.25000  0.05    0.48
Q6    1   0.5000  0.5000  0.0000  10.08333  0.05    0.45
Q7    1   0.3750  0.3750  0.0302  10.25000  0.05    0.44
Q8    1   0.2264  0.3138  0.2264  10.50000  0.05    0.43
Q9    1   0.4297  0.3851  0.2516  11.00000  0.05    0.42
Q10   1   0.2857  0.1770  0.1770  10.50000  0.05    0.41
Q11   1   0.3517  0.3517  0.1891  10.50000  0.05    0.41
Q12   1   0.2068  0.2805  0.1561  11.00000  0.05    0.40
Q13   1   0.3994  0.4221  0.2192  11.00000  0.05    0.39
Q14   1   0.3561  0.3939  0.1697  10.50000  0.05    0.39
Q15   1   0.3691  0.4119  0.0646  11.00000  0.05    0.37
Q16   1   0.3094  0.3094  0.3094  10.16667  0.05    0.36
Q17   1   0.4189  0.2413  0.2066  11.00000  0.05    0.36
Q18   1   0.2877  0.2414  0.2206  11.00000  0.05    0.35
Q19   1   0.4664  0.3280  0.2305  11.00000  0.05    0.34
Q20   1   0.2112  0.2112  0.0388  10.16667  0.05    0.33
;
_shelx_res_checksum              63956
_shelx_hkl_file
;
  -1  -1   1 166528. 1278.33   1
   1   1  -1 168653. 1336.75   1
   0  -2   0 19.1500 17.1018   1
  -2  -2   0 4069.96 264.263   1
  -2   0   2 4064.06 213.162   1
   2   0  -2 4339.15 234.290   1
   2   2   0 4149.44 260.700   1
   1   3  -1 5944.96 328.078   1
  -1   3   1 5566.48 177.872   1
  -1  -3   1 6268.82 335.164   1
   1  -3  -1 5489.64 187.156   1
  -3  -1   1 5649.59 320.355   1
   3   1  -1 5839.48 316.023   1
  -3  -1   3 165277. 1866.22   1
   3  -1  -3 173104. 1624.85   1
  -3   1   3 159560. 1438.71   1
   1   3  -3 170309. 2058.29   1
   3   1  -3 158892. 1958.79   1
  -1  -3   3 170512. 1942.58   1
   3   3  -1 162954. 2060.36   1
  -3  -3   3 89163.4 1625.52   1
   3   3  -3 90637.1 1686.73   1
  -2  -4   0 14.8160 32.7922   1
   0   4  -2 7.77905 31.8386   1
  -4   0   2 2.46911 26.9289   1
   0  -4   2 35.1758 42.1263   1
   4   0  -2 2.92930 26.2028   1
  -2  -4   2 47837.6 1157.03   1
   4   2  -2 47638.1 1163.01   1
   2   4  -2 46910.9 1150.42   1
  -4  -2   2 48307.2 1156.87   1
  -4   2   2 44954.7 729.615   1
   2   2  -4 44818.8 1072.30   1
  -2  -2   4 46138.8 1068.50   1
  -4   2   4 53942.4 902.563   1
   4   4  -2 50486.5 1384.40   1
   2   4  -4 50091.8 1325.15   1
   4   2  -4 54491.9 1350.99   1
  -4  -2   4 51691.6 1287.59   1
   4  -2  -4 53120.0 930.133   1
  -2  -4   4 50499.2 1319.77   1
  -4  -4   2 54558.6 1427.63   1
   4  -4  -4 187926. 1102.84   1
  -1  -5  -1 81161.5 1346.22   1
  -1   5   1 81614.6 1071.62   1
  -1  -5   1 81527.4 1464.48   1
   1   5   1 80479.1 1310.71   1
   1  -5  -1 82144.6 1080.14   1
  -1   5  -1 79505.6 1294.71   1
   1   5  -1 81056.8 1475.96   1
  -5  -1   3 23420.9 828.068   1
  -3   5   1 22728.3 468.685   1
  -1  -5   3 23561.9 873.551   1
  -5  -3   1 23186.7 943.179   1
   3   1  -5 21506.9 789.374   1
   1   5  -3 22429.7 860.463   1
   3   5  -1 22984.9 895.225   1
  -3  -5   1 25189.9 948.358   1
   5   1  -3 23596.3 839.614   1
  -5   1   3 22278.2 679.302   1
   5   3  -1 22790.0 901.708   1
  -3  -1   5 21358.8 805.611   1
   3  -1  -5 22207.2 698.274   1
   5  -1  -3 22109.9 656.122   1
  -3  -5   3 8162.98 561.886   1
   3   5  -3 8670.37 581.519   1
   5   3  -3 8608.36 576.218   1
  -3  -3   5 7572.32 523.647   1
   3   3  -5 7432.43 536.676   1
  -5  -3   3 8596.47 576.932   1
  -5   3   3 8115.79 328.731   1
   5  -1  -5 253527. 2647.29   1
   5   1  -5 243650. 3020.87   1
  -5  -5   3 29437.8 1235.97   1
   5   5  -3 26657.2 1139.61   1
  -3  -5   5 26330.6 1091.24   1
  -5  -3   5 27546.5 1084.18   1
   5  -3  -5 27269.0 713.678   1
   3   5  -5 28435.5 1194.67   1
   5   3  -5 29295.1 1159.70   1
   5   5  -5 141006. 2776.07   1
  -5  -5   5 140949. 2716.60   1
   0   6   0 26.6101 39.1175   1
  -2   6   0 2924.35 239.112   1
   0  -6   2 2913.30 293.263   1
   0   6  -2 2940.30 307.459   1
   2   6   0 2837.30 298.564   1
  -2  -6   0 3081.88 318.858   1
  -6   0   2 2934.00 297.471   1
  -2   6   2 227928. 1613.15   1
  -6  -2   2 230471. 2987.54   1
   6   2  -2 227001. 2881.90   1
   2  -6  -2 232868. 1639.68   1
   2   6  -2 226475. 2917.49   1
   4   6   0 50.2524 81.5390   1
   4   0  -6 1.01750 49.8555   1
  -6   0   4 51.4385 72.4771   1
   6   0  -4 7.97389 42.9429   1
  -2  -6   4 16589.6 835.357   1
  -6   2   4 17867.8 661.180   1
   4  -2  -6 17491.1 682.639   1
  -4  -2   6 15586.8 769.296   1
   6   2  -4 15695.8 844.967   1
   2   6  -4 16463.7 883.289   1
   4   6  -2 15948.0 893.723   1
   6   4  -2 17272.5 899.139   1
   4   2  -6 16079.2 818.674   1
  -6  -2   4 17525.1 869.236   1
   6  -2  -4 15398.8 569.997   1
  -4  -6   2 17290.3 922.885   1
  -6  -4   2 15932.6 894.850   1
  -6  -4   4 16168.6 934.529   1
   4   6  -4 15204.7 910.418   1
  -4  -4   6 15941.3 883.323   1
  -4  -6   4 15408.3 903.121   1
   4   4  -6 15369.4 898.102   1
  -6   4   4 16365.0 469.713   1
   6   4  -4 16459.1 900.325   1
   6   0  -6 258086. 3216.74   1
   6  -2  -6 75186.3 1493.08   1
   6   6  -2 72150.4 1961.95   1
  -6  -6   2 69063.8 2022.00   1
  -6   2   6 76180.6 1421.25   1
  -6  -2   6 72984.0 1804.15   1
   6   2  -6 76613.4 1946.33   1
  -4  -6   6 40144.2 1506.76   1
   4   6  -6 41022.8 1656.16   1
   6   4  -6 42734.7 1604.74   1
   4  -6  -6 38530.2 834.706   1
   6  -4  -6 38957.3 874.579   1
  -6  -4   6 38503.8 1447.33   1
  -6  -6   4 41719.6 1639.07   1
   6   6  -4 40893.9 1564.71   1
   6   6  -6 21965.9 1233.55   1
  -6  -6   6 21513.2 1192.80   1
  -1   7   1 40221.4 984.209   1
  -1   7  -1 39437.8 1118.33   1
   1   7  -1 40779.3 1236.59   1
  -1  -7  -1 39291.8 1089.87   1
   1  -7   1 37331.9 994.817   1
   1  -7  -1 40497.2 963.556   1
   1   7   1 37753.4 1025.20   1
  -1  -7   1 40278.4 1185.39   1
   1  -7  -3 87801.3 1304.74   1
   1   7  -3 87357.8 1997.34   1
  -7   1   3 89817.7 1686.52   1
  -1  -7   3 84663.5 1869.84   1
  -7  -1   3 87108.1 1854.79   1
   3   7  -1 86284.0 1929.80   1
  -3  -7  -1 89848.0 1967.35   1
  -3  -7   1 91026.1 2028.82   1
   7   1  -3 89080.7 1816.70   1
  -3   7   1 86308.5 1259.68   1
  -7  -3   3 237918. 3381.34   1
   3   7  -3 243013. 3475.69   1
   7   3  -3 229676. 3291.62   1
  -7   3   3 234737. 2372.98   1
  -3  -7   3 239083. 3409.75   1
   5   7  -1 17258.6 954.237   1
  -5  -1   7 18255.2 889.779   1
  -7   1   5 17735.4 795.987   1
   7  -1  -5 16441.6 714.276   1
  -7  -1   5 17318.7 872.553   1
   5   1  -7 16734.9 890.465   1
   5  -1  -7 17749.7 842.430   1
  -5  -7   1 17316.0 991.536   1
   7   1  -5 17632.9 893.558   1
  -5  -3   7 4633.54 477.804   1
  -7  -5   3 4720.97 530.705   1
   3   7  -5 4808.82 554.436   1
   5  -3  -7 5482.80 421.510   1
  -5  -7   3 4999.18 563.514   1
   5   3  -7 4302.31 515.798   1
  -7  -3   5 4856.81 510.137   1
  -7   3   5 5638.19 375.702   1
   3  -7  -5 3530.62 185.315   1
   7   5  -3 4777.85 525.372   1
  -7   5   3 5069.59 302.375   1
   7   3  -5 4978.90 525.149   1
   5   7  -3 4445.98 506.451   1
   7  -3  -5 5677.74 378.383   1
  -3  -7   5 4590.82 510.262   1
  -5  -5   7 566.604 200.557   1
   5   7  -5 226.887 143.040   1
   5   5  -7 637.880 221.956   1
   5  -5  -7 477.902 103.356   1
  -7  -5   5 202.852 142.976   1
  -7   5   5 534.335 105.111   1
   7   5  -5 63.3404 106.246   1
  -5  -7   5 241.843 140.486   1
  -7  -1   7 42346.9 1472.84   1
   7  -1  -7 41053.6 1327.89   1
  -7   1   7 41809.9 1270.63   1
  -7  -7   1 40859.2 1753.58   1
   7   1  -7 40900.4 1488.91   1
  -7  -7   3 98319.7 2677.08   1
  -7  -3   7 95025.1 2323.60   1
  -3  -7   7 95279.5 2541.50   1
   7   7  -3 95811.8 2464.47   1
   7  -3  -7 99747.2 1795.68   1
   3   7  -7 100323. 2883.31   1
   7   3  -7 100929. 2531.18   1
   7  -5  -7 2391.28 217.884   1
  -7  -5   7 2157.31 376.182   1
  -5  -7   7 2400.83 427.063   1
   5   7  -7 2120.97 413.717   1
   5  -7  -7 871.033 73.7558   1
  -7  -7   5 2648.05 458.949   1
   7   5  -7 2324.09 423.110   1
   7   7  -5 1773.73 372.750   1
   7   7  -7 69756.2 2478.98   1
  -7  -7   7 63777.6 2225.50   1
   0  -8   0 140169. 2177.97   1
   0   8   0 148312. 2320.54   1
  -2  -8   0 100.756 89.2733   1
   0  -8   2 57.4673 65.2667   1
   2   8   0 10.2223 51.3631   1
   0   8  -2 33.2410 65.4002   1
   0  -8  -2 2.72002 50.7771   1
  -2   8   2 4764.55 302.127   1
  -2  -8   2 5365.26 512.019   1
  -2   8  -2 4548.10 423.456   1
  -2  -8  -2 4674.21 445.255   1
   2   8  -2 4916.68 489.449   1
   2  -8  -2 4847.90 308.857   1
  -8   0   4 53203.3 1441.90   1
   8   0  -4 54432.5 1446.46   1
   0   8  -4 55097.8 1733.56   1
  -4   8   0 55774.2 1200.97   1
  -4  -8   0 55351.2 1718.11   1
   4   8   0 53838.3 1632.00   1
   2  -8  -4 66329.1 1044.63   1
   8   2  -4 71689.2 1869.07   1
  -2  -8   4 67502.9 1874.73   1
   2   8  -4 71768.4 2064.01   1
  -8  -2   4 70494.3 1852.93   1
  -8   2   4 69922.5 1490.64   1
  -4   8   2 63355.4 950.888   1
   4   8  -2 67077.1 1963.56   1
  -4  -8   2 71181.6 2060.61   1
  -8   4   4 13078.5 562.175   1
  -8  -4   4 13268.2 906.063   1
  -4  -8   4 13727.4 923.884   1
   8   4  -4 13509.2 878.023   1
   4   8  -4 12930.7 910.388   1
  -8   0   6 67.1299 105.884   1
   6   0  -8 21.8379 98.1186   1
   8   0  -6 27.1212 76.7030   1
   6   2  -8 4121.90 528.349   1
   6  -2  -8 4752.43 472.036   1
  -6  -2   8 4192.30 478.661   1
   8  -2  -6 4014.35 357.534   1
   8   2  -6 4428.14 511.673   1
  -2  -8   6 4435.86 529.104   1
  -8  -2   6 3960.71 472.035   1
   8   6  -2 4735.46 558.823   1
   2   8  -6 4343.23 585.508   1
  -8   2   6 4804.29 411.730   1
   6   8  -2 4501.15 526.737   1
  -6  -8   2 3934.59 531.501   1
  -6   8   2 3814.79 230.952   1
  -8  -6   2 4255.90 587.763   1
  -8   4   6 26989.6 812.623   1
  -4  -8   6 24857.2 1305.85   1
  -8  -4   6 24611.8 1246.50   1
   4   8  -6 24121.8 1340.88   1
  -8  -6   4 24187.1 1377.78   1
   6   4  -8 24649.0 1343.97   1
   6  -4  -8 24557.2 889.603   1
  -8   6   4 19915.6 547.892   1
  -6  -4   8 23481.0 1196.38   1
  -6  -8   4 25338.6 1386.69   1
   8   6  -4 23548.1 1251.12   1
   6   8  -4 24275.5 1329.54   1
   8   4  -6 25412.1 1322.30   1
   4   6  -8 24654.5 1407.19   1
   6   6  -8 18514.0 1222.67   1
  -6  -6   8 18324.6 1155.97   1
  -8  -6   6 18960.1 1199.78   1
   8   6  -6 20702.0 1289.15   1
  -6  -8   6 19239.4 1223.91   1
   6   8  -6 21574.3 1362.35   1
   6  -6  -8 16468.7 553.702   1
  -8   0   8 3793.59 460.240   1
   8   0  -8 3622.26 457.548   1
  -8  -2   8 122323. 2791.23   1
  -8   2   8 124306. 2304.58   1
   8   8  -2 119046. 3017.79   1
   8  -2  -8 116375. 2262.01   1
   8   2  -8 121253. 2896.26   1
  -8  -8   2 114731. 3202.49   1
   8  -4  -8 11490.7 613.792   1
  -8  -8   4 11732.7 1053.83   1
   4   8  -8 10874.0 1057.71   1
   8   8  -4 10529.1 910.520   1
   8   4  -8 11187.3 956.271   1
  -8  -4   8 11589.6 927.559   1
   6   8  -8 37960.3 1861.64   1
  -8  -8   6 40965.1 1931.17   1
  -6  -8   8 38848.2 1827.46   1
   8   8  -6 41552.3 2006.41   1
   8   6  -8 38537.1 1906.45   1
  -8  -6   8 38840.1 1795.04   1
   1   9   1 97604.5 1897.08   1
  -1   9  -1 97258.4 1993.18   1
  -1  -9  -1 97812.5 2002.54   1
   1  -9   1 94160.5 1818.07   1
  -1   9   1 97711.1 1762.76   1
   1   9  -1 99368.7 2218.85   1
  -1  -9   1 96327.8 2054.90   1
   1  -9  -1 97846.2 1693.46   1
   3   9   1 59333.2 1637.45   1
  -1  -9   3 61246.1 1772.20   1
   1   9  -3 60776.4 1851.71   1
   1  -9  -3 62880.9 1329.22   1
  -3   9  -1 59454.7 1487.54   1
  -3  -9   1 60490.8 1833.08   1
  -1   9  -3 58578.1 1726.14   1
   3   9  -1 60498.8 1809.27   1
  -1  -9  -3 62409.1 1635.86   1
  -3   9   1 58776.0 1240.53   1
  -3  -9  -1 57973.8 1737.71   1
  -3  -9   3 12052.2 849.137   1
  -9  -3   3 11106.2 838.660   1
   3   9  -3 11256.9 852.860   1
   5   9  -1 74216.2 2144.44   1
  -5  -9   1 69652.6 2131.43   1
  -9   1   5 77146.6 1871.32   1
  -9  -1   5 73634.4 1984.33   1
   1   9  -5 67362.2 2171.15   1
  -5   9   1 67082.0 1247.87   1
   9   1  -5 70954.3 1878.23   1
  -3  -9   5 10438.9 832.069   1
   3   9  -5 10137.5 878.134   1
  -9  -3   5 10529.8 812.743   1
  -9   3   5 11292.6 644.018   1
   3  -9  -5 8095.46 328.549   1
  -5  -9   3 9627.04 840.971   1
   5   9  -3 11020.6 880.427   1
   9   3  -5 10228.3 785.435   1
  -9  -5   3 9689.78 858.398   1
   9   5  -3 10221.8 854.772   1
   5   9  -5 82369.3 2562.61   1
  -9  -5   5 86156.0 2597.13   1
  -5  -9   5 83564.2 2503.69   1
  -9   5   5 86239.4 1460.42   1
   9   5  -5 82000.7 2406.04   1
  -9  -1   7 801.095 211.341   1
  -7  -9   1 818.655 260.938   1
   7  -1  -9 844.732 242.373   1
   7   1  -9 464.448 218.118   1
  -9   1   7 1020.72 219.685   1
   9   1  -7 1243.95 267.215   1
   9  -1  -7 1013.69 220.735   1
   7   9  -1 637.721 229.630   1
  -9   3   7 18198.0 789.921   1
  -9  -7   3 17316.5 1263.18   1
   7  -3  -9 17766.9 881.970   1
   7   3  -9 17734.9 1157.72   1
  -7  -9   3 17812.3 1257.90   1
  -7  -3   9 16649.6 1057.03   1
   3   9  -7 16360.9 1279.48   1
  -3  -9   7 17450.9 1162.53   1
   9   7  -3 16808.4 1165.79   1
   9  -3  -7 18721.9 827.851   1
  -9  -3   7 17633.3 1102.95   1
   7   9  -3 16432.2 1118.25   1
   9   3  -7 18703.1 1183.07   1
  -9  -5   7 285.629 194.412   1
   7  -5  -9 568.488 141.638   1
   5   9  -7 198.993 186.298   1
   7   5  -9 380.095 200.728   1
   7   9  -5 565.867 258.008   1
  -5  -9   7 440.045 237.682   1
   5   7  -9 396.365 254.180   1
  -9  -7   5 317.476 199.826   1
   9   7  -5 326.403 207.422   1
   9   5  -7 545.060 266.684   1
  -7  -9   5 537.954 267.985   1
  -7  -5   9 352.114 216.910   1
   7  -7  -9 7355.17 357.888   1
  -7  -7   9 9047.53 879.682   1
  -9  -7   7 9377.98 941.074   1
  -7  -9   7 8509.82 903.461   1
   9   1  -9 13978.9 1015.47   1
  -9  -1   9 13957.3 962.143   1
  -9   1   9 13000.7 814.463   1
   9  -1  -9 14147.8 933.073   1
  -9  -3   9 6499.23 740.093   1
  -9  -9   3 6049.85 817.933   1
   9  -3  -9 6018.12 548.749   1
   9   3  -9 5424.90 704.561   1
  -9  -5   9 34232.0 1747.81   1
   9  -5  -9 38117.7 1139.83   1
   9   5  -9 33527.8 1851.91   1
   0 -10   0 27.2022 68.7901   1
   0  10  -2 22477.1 1096.26   1
   0 -10   2 20994.2 983.045   1
   0 -10  -2 22815.0 938.417   1
  -2 -10   0 21944.4 1067.70   1
   2  10   0 22482.7 1069.46   1
  -2  10   0 22258.2 912.287   1
   2 -10  -2 6733.56 429.249   1
  -2  10  -2 6810.98 608.997   1
  -2  10   2 7170.23 452.821   1
  -2 -10   2 6713.00 614.957   1
   2  10  -2 7298.01 683.510   1
  -2 -10  -2 6748.76 599.696   1
   0 -10  -4 61.7676 89.9301   1
   4  10   0 21.0375 91.3023   1
  -4  10   0 6.77871 67.9887   1
   0  10  -4 61.0327 125.404   1
   2  10  -4 18384.6 1126.46   1
  -2 -10   4 18610.9 1088.80   1
   2 -10  -4 19102.5 690.420   1
  -4 -10   2 18370.6 1137.91   1
   4  10  -2 18401.6 1110.97   1
  -4  10   2 17451.9 608.110   1
 -10   2   4 19774.4 1038.70   1
 -10  -2   4 17841.2 1063.39   1
 -10  -4   4 304.378 170.221   1
  -4 -10   4 625.979 225.565   1
  10   4  -4 1078.61 298.592   1
 -10   4   4 548.731 174.544   1
   4  10  -4 648.715 251.605   1
 -10   0   6 68851.1 1977.91   1
  10   0  -6 68909.3 1875.66   1
  -6 -10   0 67401.5 2314.01   1
  -6 -10   2 1704.57 384.269   1
  10   2  -6 1683.93 331.889   1
  -2 -10   6 1605.79 360.758   1
   2  10  -6 1143.11 328.770   1
   6  10  -2 1900.91 373.976   1
 -10  -2   6 1633.89 333.403   1
 -10   2   6 1245.02 252.926   1
   2 -10  -6 1138.96 184.066   1
  -6  10   2 1154.48 139.414   1
   4  10  -6 61784.8 2327.91   1
 -10  -6   4 64509.6 2397.42   1
  -4 -10   6 62802.1 2268.49   1
 -10  -4   6 63724.6 2181.71   1
  10   6  -4 67073.0 2385.26   1
  -6 -10   4 64071.0 2332.58   1
 -10   4   6 70856.6 1574.16   1
  10   4  -6 66938.0 2237.70   1
   6  10  -4 64131.2 2391.00   1
 -10   6   4 64444.1 1392.09   1
  10   6  -6 234.291 179.417   1
   6   6 -10 289.322 238.704   1
  -6 -10   6 74.2691 150.627   1
 -10  -6   6 70.6771 147.729   1
 -10   6   6 345.385 143.965   1
   8   0 -10 2.43254 117.760   1
 -10   0   8 115.358 130.332   1
 -10   2   8 5.93566 82.6844   1
  -8 -10   2 318.568 225.263   1
 -10  -2   8 128.109 143.570   1
  10  -2  -8 34.8029 85.9834   1
  10   2  -8 167.195 156.765   1
  -8  -2  10 226.688 183.199   1
   4 -10  -8 511.566 85.2728   1
   8  -4 -10 973.017 219.932   1
   8   4 -10 961.224 329.011   1
 -10   8   4 740.278 113.678   1
 -10  -4   8 1007.74 317.782   1
  -4 -10   8 631.946 271.443   1
 -10  -8   4 1253.62 434.601   1
  -8 -10   4 771.103 326.249   1
  10   4  -8 607.065 269.186   1
  -8  -4  10 728.675 265.587   1
   6  -8 -10 8028.87 487.123   1
  -8  -6  10 8555.15 925.371   1
 -10  -6   8 8862.86 917.223   1
 -10   0  10 84058.4 2311.01   1
  10   0 -10 84119.2 2464.41   1
  10  -2 -10 33.6167 119.439   1
 -10  -4  10 56173.8 2382.41   1
  10  -4 -10 64748.1 1858.13   1
   1 -11   1 69365.5 1762.07   1
  -1 -11  -1 70683.0 1860.10   1
   1  11   1 70700.4 1835.55   1
  -1  11   1 72589.4 1715.47   1
   1  11  -1 71417.9 2053.36   1
  -1 -11   1 67401.8 1860.32   1
  -1  11  -1 67181.1 1828.53   1
   1 -11  -1 70878.9 1654.36   1
   1  11  -3 32920.2 1476.86   1
  -1 -11  -3 34618.7 1308.40   1
  -3 -11  -1 35929.5 1495.88   1
  -1 -11   3 31901.8 1382.50   1
  -3  11  -1 34610.4 1352.88   1
  -1  11  -3 34178.0 1511.27   1
   3  11  -1 35393.5 1516.52   1
  -3 -11   1 32797.9 1447.11   1
   1 -11  -3 35790.3 1129.43   1
  -3  11   1 32537.6 1066.52   1
   3  11  -3 41428.2 1774.84   1
  -3 -11   3 38793.8 1596.98   1
   1 -11  -5 14789.5 728.808   1
  -5  11   1 12903.0 609.909   1
 -11   1   5 15445.1 974.663   1
 -11  -1   5 14776.4 1013.37   1
  -5 -11   1 14269.0 1081.91   1
   1  11  -5 13775.9 1115.33   1
   5  11  -1 14773.0 1053.16   1
  -5 -11  -1 15006.2 1093.64   1
   3  11  -5 8055.39 822.496   1
 -11   3   5 9114.90 686.131   1
  11   3  -5 8815.40 800.547   1
 -11  -3   5 7668.98 788.093   1
  -3 -11   5 7594.07 764.353   1
  -5 -11   3 8115.65 806.790   1
   5  11  -3 8399.66 819.168   1
   3 -11  -5 8495.39 443.128   1
 -11   5   5 39534.8 1230.88   1
 -11  -5   5 38052.4 1841.56   1
  11   5  -5 39831.0 1861.11   1
   5  11  -5 38631.4 1948.86   1
  -5 -11   5 35023.2 1738.59   1
  -7 -11   1 12153.4 1094.05   1
  11  -1  -7 13923.6 883.498   1
   7  11  -1 13588.8 1101.92   1
 -11  -1   7 12917.9 950.968   1
  11   1  -7 12950.1 924.821   1
 -11   1   7 13521.0 904.791   1
   3 -11  -7 15526.8 621.312   1
  -7 -11   3 21308.4 1461.10   1
  -3 -11   7 21284.2 1406.53   1
 -11  -3   7 18876.2 1212.00   1
  11   3  -7 22234.2 1313.02   1
 -11   3   7 25061.7 1092.48   1
 -11   7   5 968.073 186.734   1
 -11   5   7 1265.27 300.358   1
 -11  -5   7 581.630 270.449   1
   7  -7 -11 18736.0 970.097   1
 -11   1   9 3188.78 461.040   1
   9  -1 -11 3864.10 566.163   1
   9   1 -11 4758.18 718.238   1
  11  -1  -9 3944.33 486.251   1
  11   1  -9 3458.56 525.753   1
 -11  -1   9 3733.64 556.257   1
   9  -3 -11 158.378 138.094   1
 -11   3   9 59.5533 101.844   1
  11  -3  -9 12.5939 104.144   1
  11   3  -9 83.9080 137.520   1
 -11  -3   9 18.6578 131.505   1
   9  -5 -11 11267.2 820.277   1
 -11  -1  11 417.607 251.271   1
  11  -1 -11 362.276 240.654   1
  11   1 -11 425.110 242.829   1
  11  -3 -11 4400.49 570.374   1
   0  12   0 12710.6 837.413   1
   0 -12   0 11375.6 758.981   1
   0  12  -2 178.741 137.469   1
   0 -12   2 1.74910 81.6628   1
   2  12   0 37.5988 99.9769   1
  -2 -12   0 104.368 126.694   1
  -2  12   0 114.315 87.3840   1
  -2  12  -2 102.553 149.374   1
  -2  12   2 103.255 90.7195   1
  -2 -12   2 49.5569 131.883   1
   2  12  -2 75.7146 142.413   1
   0  12  -4 58.8506 138.555   1
  -2 -12   4 29267.0 1457.92   1
  -4  12   2 32861.4 993.726   1
  -4 -12   2 31261.9 1519.39   1
   4  12  -2 34574.6 1680.70   1
   2 -12  -4 35260.6 1064.50   1
   2  12  -4 32957.6 1656.16   1
  -4 -12  -2 33183.7 1653.28   1
  -4 -12   4 781.374 256.373   1
   4  12  -4 579.311 249.597   1
   2  12  -6 535.517 306.817   1
   2 -12  -6 280.232 122.122   1
 -12  -2   6 80.4629 152.560   1
 -12   2   6 655.186 245.845   1
   6  12  -2 89.3108 107.338   1
  -6 -12   2 77.7113 142.277   1
  -6  12   2 505.217 116.614   1
  -4 -12   6 9677.13 963.813   1
 -12  -4   6 11186.6 1056.70   1
 -12   4   6 12525.6 798.536   1
  12   4  -6 11854.7 1029.50   1
  -6 -12   4 11592.4 1098.80   1
 -12   6   6 3011.04 399.813   1
 -12   0   8 1204.96 331.082   1
  12   0  -8 1499.73 329.226   1
  12   2  -8 59245.4 2206.18   1
 -12  -2   8 55973.7 2192.49   1
 -12   2   8 60361.8 1905.51   1
  -8  12   2 55538.1 1430.06   1
 -12  -4   8 302.331 219.456   1
 -12   4   8 532.507 248.923   1
  10   0 -12 11.8738 252.887   1
 -12   0  10 20.7118 153.772   1
 -12   2  10 307.865 192.294   1
  12  -2 -10 249.436 183.375   1
  10  -2 -12 182.088 202.154   1
  10  -4 -12 752.696 276.175   1
  12   0 -12 96.9529 182.979   1
  12  -2 -12 37592.7 1869.71   1
   1 -13  -1 21917.4 1024.48   1
   1 -13   1 23221.0 1156.60   1
   1  13   1 23925.5 1217.48   1
  -1  13   1 24199.6 1096.83   1
  -1 -13  -1 21409.3 1124.12   1
   1  13  -1 21112.3 1195.22   1
  -1  13  -1 20061.7 1110.31   1
  -1 -13   1 20732.8 1140.98   1
  -3  13  -1 17237.7 1015.16   1
  -1  13  -3 17918.5 1199.89   1
  -1 -13   3 16054.6 1038.39   1
  -1 -13  -3 19125.0 1110.12   1
  -3 -13  -1 18369.0 1175.18   1
   3  13  -1 19293.1 1233.79   1
  -3 -13   1 16525.2 1095.12   1
  -3  13   1 18127.4 894.446   1
   1 -13  -3 19970.9 944.348   1
   1  13  -3 16287.7 1148.99   1
   3  13  -3 40172.5 1894.99   1
  -3 -13   3 39738.4 1762.61   1
   1  13  -5 12085.5 1076.96   1
  -5 -13  -1 14919.4 1219.13   1
   1 -13  -5 15820.1 888.866   1
  -5 -13   1 12682.0 1093.30   1
   5  13  -1 14923.2 1162.63   1
  -5  13   1 14261.0 786.634   1
  -5 -13   3 3261.00 570.359   1
  -3 -13   5 2855.82 502.154   1
 -13  -1   7 5553.36 704.344   1
 -13   1   7 4289.32 584.910   1
 -13  -3   7 14597.8 1219.36   1
 -13   3   7 15811.6 1015.35   1
 -13  -1   9 399.726 233.044   1
  13   1  -9 1073.66 320.472   1
 -13   1   9 662.364 239.974   1
 -13   3   9 2439.16 501.163   1
  13  -1 -11 194.486 211.586   1
 -13   1  11 196.625 205.919   1
 -13  -1  11 184.483 198.216   1
  11  -1 -13 200.543 255.749   1
  11  -3 -13 5218.27 861.190   1
   0 -14   2 6708.18 673.168   1
   2  14   0 8035.25 789.376   1
  -2  14   0 7129.60 658.289   1
  -2 -14   0 7398.72 722.399   1
   0 -14  -2 7826.27 676.924   1
   0  14  -2 6467.08 716.002   1
  -2 -14   2 7869.44 771.206   1
   2 -14  -2 13913.9 931.728   1
  -2 -14  -2 9396.31 852.732   1
  -2  14   2 12571.0 832.982   1
   2  14  -2 10134.7 948.297   1
  -2  14  -2 9537.62 889.037   1
  -4 -14   0 22.8123 142.125   1
  -4  14   0 50.9039 132.184   1
   2 -14  -4 394.789 162.525   1
  -2 -14   4 135.998 181.744   1
  -4 -14   2 81.7382 172.836   1
  -4 -14  -2 713.898 299.099   1
  -6  14   0 261434. 10111.2   1
   2 -14  -6 6471.97 665.747   1
 -14   2   8 3015.10 500.136   1
 -14  -2   8 1814.71 480.070   1
 -14   4   8 284.674 268.912   1
 -14   0  10 29230.3 1665.10   1
 -14   2  10 40.8285 264.000   1
  -1 -15   1 14519.4 1037.69   1
   1 -15  -1 15792.3 937.817   1
   1  15   1 16137.3 1098.19   1
  -1  15   1 18721.8 1094.68   1
   1  15  -1 14003.6 1028.31   1
  -1  15  -1 13956.4 1033.00   1
  -1 -15  -1 15502.9 1041.01   1
   1 -15  -3 4267.42 520.095   1
  -1  15  -3 3036.67 578.070   1
  -1 -15   3 3189.80 506.538   1
  -3 -15   1 3076.57 524.533   1
  -1 -15  -3 4116.19 556.634   1
   3  15  -1 4060.90 610.534   1
  -3  15   1 3993.30 487.312   1
  -3 -15  -1 3687.33 586.188   1
   1  15  -3 2727.06 518.241   1
  -3  15  -1 3839.07 603.712   1
  -3 -15  -3 8545.97 910.403   1
  -5  15   1 24466.0 1390.08   1
   1 -15  -5 24405.9 1415.77   1
 -15   1   9 6383.35 789.793   1
 -15   1  11 602.709 351.452   1
   0 -16   0 9118.64 807.868   1
   0  16   0 9712.51 875.156   1
   2  16   0 217.341 178.276   1
   0  16  -2 2.98421 176.215   1
  -2  16  -2 66.0340 242.890   1
  -2 -16  -2 148.916 225.699   1
  -4  16   0 28433.7 2124.81   1
   0 -16  -4 19923.5 1365.31   1
  -4 -16  -2 6297.07 847.484   1
  -1  17   1 4645.11 667.165   1
  -1  17  -1 4402.04 678.826   1
  -1 -17   1 3444.29 556.942   1
  -1 -17  -1 4326.38 631.037   1
   1 -17  -1 5735.11 805.619   1
  -3 -17  -1 3720.85 619.668   1
  -1 -17  -3 4955.80 720.025   1
   0 -18  -2 1676.04 515.021   1
  -2 -18  -2 14057.0 1266.82   1
   0   0   0    0.00    0.00   0
TITL marseno_031 in Fd-3m
REM Fd-3m (#227 in standard setting)
CELL 0.41427  11.064622  11.064622  11.064622  90.0000  90.0000  90.0000
ZERR    6.00   0.000218   0.000218   0.000218   0.0000   0.0000   0.0000
LATT  4
SYMM -x+3/4,-y+1/4, z+1/2
SYMM -x+1/4, y+1/2,-z+3/4
SYMM  x+1/2,-y+3/4,-z+1/4
SYMM  z, x, y
SYMM  z+1/2,-x+3/4,-y+1/4
SYMM -z+3/4,-x+1/4, y+1/2
SYMM -z+1/4, x+1/2,-y+3/4
SYMM  y, z, x
SYMM -y+1/4, z+1/2,-x+3/4
SYMM  y+1/2,-z+3/4,-x+1/4
SYMM -y+3/4,-z+1/4, x+1/2
SYMM  y+3/4, x+1/4,-z+1/2
SYMM -y,-x,-z
SYMM  y+1/4,-x+1/2, z+3/4
SYMM -y+1/2, x+3/4, z+1/4
SYMM  x+3/4, z+1/4,-y+1/2
SYMM -x+1/2, z+3/4, y+1/4
SYMM -x,-z,-y
SYMM  x+1/4,-z+1/2, y+3/4
SYMM  z+3/4, y+1/4,-x+1/2
SYMM  z+1/4,-y+1/2, x+3/4
SYMM -z+1/2, y+3/4, x+1/4
SYMM -z,-y,-x
SFAC O As
UNIT 36.00 24.00
TREF
HKLF 4
END
;
_shelx_hkl_checksum              14790
_shelx_shelxl_version_number     2014/7
loop_
_space_group_symop_operation_xyz
'x, y, z'
'-x+3/4, -y+1/4, z+1/2'
'-x+1/4, y+1/2, -z+3/4'
'x+1/2, -y+3/4, -z+1/4'
'z, x, y'
'z+1/2, -x+3/4, -y+1/4'
'-z+3/4, -x+1/4, y+1/2'
'-z+1/4, x+1/2, -y+3/4'
'y, z, x'
'-y+1/4, z+1/2, -x+3/4'
'y+1/2, -z+3/4, -x+1/4'
'-y+3/4, -z+1/4, x+1/2'
'y+3/4, x+1/4, -z+1/2'
'-y, -x, -z'
'y+1/4, -x+1/2, z+3/4'
'-y+1/2, x+3/4, z+1/4'
'x+3/4, z+1/4, -y+1/2'
'-x+1/2, z+3/4, y+1/4'
'-x, -z, -y'
'x+1/4, -z+1/2, y+3/4'
'z+3/4, y+1/4, -x+1/2'
'z+1/4, -y+1/2, x+3/4'
'-z+1/2, y+3/4, x+1/4'
'-z, -y, -x'
'x, y+1/2, z+1/2'
'-x+3/4, -y+3/4, z+1'
'-x+1/4, y+1, -z+5/4'
'x+1/2, -y+5/4, -z+3/4'
'z, x+1/2, y+1/2'
'z+1/2, -x+5/4, -y+3/4'
'-z+3/4, -x+3/4, y+1'
'-z+1/4, x+1, -y+5/4'
'y, z+1/2, x+1/2'
'-y+1/4, z+1, -x+5/4'
'y+1/2, -z+5/4, -x+3/4'
'-y+3/4, -z+3/4, x+1'
'y+3/4, x+3/4, -z+1'
'-y, -x+1/2, -z+1/2'
'y+1/4, -x+1, z+5/4'
'-y+1/2, x+5/4, z+3/4'
'x+3/4, z+3/4, -y+1'
'-x+1/2, z+5/4, y+3/4'
'-x, -z+1/2, -y+1/2'
'x+1/4, -z+1, y+5/4'
'z+3/4, y+3/4, -x+1'
'z+1/4, -y+1, x+5/4'
'-z+1/2, y+5/4, x+3/4'
'-z, -y+1/2, -x+1/2'
'x+1/2, y, z+1/2'
'-x+5/4, -y+1/4, z+1'
'-x+3/4, y+1/2, -z+5/4'
'x+1, -y+3/4, -z+3/4'
'z+1/2, x, y+1/2'
'z+1, -x+3/4, -y+3/4'
'-z+5/4, -x+1/4, y+1'
'-z+3/4, x+1/2, -y+5/4'
'y+1/2, z, x+1/2'
'-y+3/4, z+1/2, -x+5/4'
'y+1, -z+3/4, -x+3/4'
'-y+5/4, -z+1/4, x+1'
'y+5/4, x+1/4, -z+1'
'-y+1/2, -x, -z+1/2'
'y+3/4, -x+1/2, z+5/4'
'-y+1, x+3/4, z+3/4'
'x+5/4, z+1/4, -y+1'
'-x+1, z+3/4, y+3/4'
'-x+1/2, -z, -y+1/2'
'x+3/4, -z+1/2, y+5/4'
'z+5/4, y+1/4, -x+1'
'z+3/4, -y+1/2, x+5/4'
'-z+1, y+3/4, x+3/4'
'-z+1/2, -y, -x+1/2'
'x+1/2, y+1/2, z'
'-x+5/4, -y+3/4, z+1/2'
'-x+3/4, y+1, -z+3/4'
'x+1, -y+5/4, -z+1/4'
'z+1/2, x+1/2, y'
'z+1, -x+5/4, -y+1/4'
'-z+5/4, -x+3/4, y+1/2'
'-z+3/4, x+1, -y+3/4'
'y+1/2, z+1/2, x'
'-y+3/4, z+1, -x+3/4'
'y+1, -z+5/4, -x+1/4'
'-y+5/4, -z+3/4, x+1/2'
'y+5/4, x+3/4, -z+1/2'
'-y+1/2, -x+1/2, -z'
'y+3/4, -x+1, z+3/4'
'-y+1, x+5/4, z+1/4'
'x+5/4, z+3/4, -y+1/2'
'-x+1, z+5/4, y+1/4'
'-x+1/2, -z+1/2, -y'
'x+3/4, -z+1, y+3/4'
'z+5/4, y+3/4, -x+1/2'
'z+3/4, -y+1, x+3/4'
'-z+1, y+5/4, x+1/4'
'-z+1/2, -y+1/2, -x'
'-x, -y, -z'
'x-3/4, y-1/4, -z-1/2'
'x-1/4, -y-1/2, z-3/4'
'-x-1/2, y-3/4, z-1/4'
'-z, -x, -y'
'-z-1/2, x-3/4, y-1/4'
'z-3/4, x-1/4, -y-1/2'
'z-1/4, -x-1/2, y-3/4'
'-y, -z, -x'
'y-1/4, -z-1/2, x-3/4'
'-y-1/2, z-3/4, x-1/4'
'y-3/4, z-1/4, -x-1/2'
'-y-3/4, -x-1/4, z-1/2'
'y, x, z'
'-y-1/4, x-1/2, -z-3/4'
'y-1/2, -x-3/4, -z-1/4'
'-x-3/4, -z-1/4, y-1/2'
'x-1/2, -z-3/4, -y-1/4'
'x, z, y'
'-x-1/4, z-1/2, -y-3/4'
'-z-3/4, -y-1/4, x-1/2'
'-z-1/4, y-1/2, -x-3/4'
'z-1/2, -y-3/4, -x-1/4'
'z, y, x'
'-x, -y+1/2, -z+1/2'
'x-3/4, y+1/4, -z'
'x-1/4, -y, z-1/4'
'-x-1/2, y-1/4, z+1/4'
'-z, -x+1/2, -y+1/2'
'-z-1/2, x-1/4, y+1/4'
'z-3/4, x+1/4, -y'
'z-1/4, -x, y-1/4'
'-y, -z+1/2, -x+1/2'
'y-1/4, -z, x-1/4'
'-y-1/2, z-1/4, x+1/4'
'y-3/4, z+1/4, -x'
'-y-3/4, -x+1/4, z'
'y, x+1/2, z+1/2'
'-y-1/4, x, -z-1/4'
'y-1/2, -x-1/4, -z+1/4'
'-x-3/4, -z+1/4, y'
'x-1/2, -z-1/4, -y+1/4'
'x, z+1/2, y+1/2'
'-x-1/4, z, -y-1/4'
'-z-3/4, -y+1/4, x'
'-z-1/4, y, -x-1/4'
'z-1/2, -y-1/4, -x+1/4'
'z, y+1/2, x+1/2'
'-x+1/2, -y, -z+1/2'
'x-1/4, y-1/4, -z'
'x+1/4, -y-1/2, z-1/4'
'-x, y-3/4, z+1/4'
'-z+1/2, -x, -y+1/2'
'-z, x-3/4, y+1/4'
'z-1/4, x-1/4, -y'
'z+1/4, -x-1/2, y-1/4'
'-y+1/2, -z, -x+1/2'
'y+1/4, -z-1/2, x-1/4'
'-y, z-3/4, x+1/4'
'y-1/4, z-1/4, -x'
'-y-1/4, -x-1/4, z'
'y+1/2, x, z+1/2'
'-y+1/4, x-1/2, -z-1/4'
'y, -x-3/4, -z+1/4'
'-x-1/4, -z-1/4, y'
'x, -z-3/4, -y+1/4'
'x+1/2, z, y+1/2'
'-x+1/4, z-1/2, -y-1/4'
'-z-1/4, -y-1/4, x'
'-z+1/4, y-1/2, -x-1/4'
'z, -y-3/4, -x+1/4'
'z+1/2, y, x+1/2'
'-x+1/2, -y+1/2, -z'
'x-1/4, y+1/4, -z-1/2'
'x+1/4, -y, z-3/4'
'-x, y-1/4, z-1/4'
'-z+1/2, -x+1/2, -y'
'-z, x-1/4, y-1/4'
'z-1/4, x+1/4, -y-1/2'
'z+1/4, -x, y-3/4'
'-y+1/2, -z+1/2, -x'
'y+1/4, -z, x-3/4'
'-y, z-1/4, x-1/4'
'y-1/4, z+1/4, -x-1/2'
'-y-1/4, -x+1/4, z-1/2'
'y+1/2, x+1/2, z'
'-y+1/4, x, -z-3/4'
'y, -x-1/4, -z-1/4'
'-x-1/4, -z+1/4, y-1/2'
'x, -z-1/4, -y-1/4'
'x+1/2, z+1/2, y'
'-x+1/4, z, -y-3/4'
'-z-1/4, -y+1/4, x-1/2'
'-z+1/4, y, -x-3/4'
'z, -y-1/4, -x-1/4'
'z+1/2, y+1/2, x'
loop_
_atom_site_label
_atom_site_type_symbol
_atom_site_fract_x
_atom_site_fract_y
_atom_site_fract_z
_atom_site_U_iso_or_equiv
_atom_site_adp_type
_atom_site_occupancy
_atom_site_site_symmetry_order
_atom_site_calc_flag
_atom_site_refinement_flags_posn
_atom_site_refinement_flags_adp
_atom_site_refinement_flags_occupancy
As1 As 0.27203(4) 0.27203(4) 0.27203(4) 0.0197(3) Uani 1 6 d S T P
O1 O 0.3750 0.3750 0.2012(4) 0.0206(9) Uani 1 4 d S T P
loop_
_atom_site_aniso_label
_atom_site_aniso_U_11
_atom_site_aniso_U_22
_atom_site_aniso_U_33
_atom_site_aniso_U_23
_atom_site_aniso_U_13
_atom_site_aniso_U_12
As1 0.0197(3) 0.0197(3) 0.0197(3) -0.00144(16) -0.00144(16) -0.00144(16)
O1 0.0219(14) 0.0219(14) 0.018(2) 0.000 0.000 0.0009(18)
loop_
_atom_type_symbol
_atom_type_description
_atom_type_scat_dispersion_real
_atom_type_scat_dispersion_imag
_atom_type_scat_source
O O 0.0020 0.0020 'International Tables Vol C Tables 4.2.6.8 and 6.1.1.4'
As As 0.3110 0.7990 'International Tables Vol C Tables 4.2.6.8 and 6.1.1.4'
loop_
_geom_angle_atom_site_label_1
_geom_angle_atom_site_label_2
_geom_angle_atom_site_label_3
_geom_angle
_geom_angle_site_symmetry_1
_geom_angle_site_symmetry_3
O1 As1 O1 98.75(18) 9 5
O1 As1 O1 98.75(18) 5 .
O1 As1 O1 98.75(18) 9 .
As1 O1 As1 128.1(3) 26_554 .
loop_
_geom_bond_atom_site_label_1
_geom_bond_atom_site_label_2
_geom_bond_distance
_geom_bond_site_symmetry_2
As1 O1 1.792(2) 9
As1 O1 1.792(2) .
As1 O1 1.792(2) 5
O1 As1 1.792(2) 26_554
