#------------------------------------------------------------------------------
#$Date: 2015-09-04 08:12:49 +0300 (Fri, 04 Sep 2015) $
#$Revision: 153928 $
#$URL: svn://www.crystallography.net/cod/cif/4/51/35/4513581.cif $
#------------------------------------------------------------------------------
#
# This file is available in the Crystallography Open Database (COD),
# http://www.crystallography.net/
#
# All data on this site have been placed in the public domain by the
# contributors.
#
data_4513581
loop_
_publ_author_name
'Gu\'nka, Piotr A.'
'Dziubek, Kamil F.'
'G\/ladysiak, Andrzej'
'Dranka, Maciej'
'Piechota, Jacek'
'Hanfland, Michael'
'Katrusiak, Andrzej'
'Zachara, Janusz'
_publ_section_title
;
 Compressed Arsenolite As4O6and Its Helium Clathrate As4O6&#x00B7;2He
;
_journal_issue                   8
_journal_name_full               'Crystal Growth &amp; Design'
_journal_page_first              3740
_journal_paper_doi               10.1021/acs.cgd.5b00390
_journal_volume                  15
_journal_year                    2015
_chemical_formula_moiety         'As4 O6'
_chemical_formula_sum            'As4 O6'
_chemical_formula_weight         395.69
_chemical_name_common            arsenolite
_space_group_crystal_system      cubic
_space_group_IT_number           227
_space_group_name_Hall           '-F 4vw 2vw 3'
_space_group_name_H-M_alt        'F d -3 m'
_symmetry_space_group_name_Hall  '-F 4vw 2vw 3'
_symmetry_space_group_name_H-M   'F d -3 m :2'
_atom_sites_solution_primary     direct
_audit_creation_date             2014-10-15
_audit_creation_method
;
Olex2 1.2-beta
(compiled 2014.09.19 svn.r3010 for OlexSys, GUI svn.r4874)
;
_cell_angle_alpha                90
_cell_angle_beta                 90
_cell_angle_gamma                90
_cell_formula_units_Z            8
_cell_length_a                   9.6502(4)
_cell_length_b                   9.6502(4)
_cell_length_c                   9.6502(4)
_cell_measurement_pressure       2.227e7(5)
_cell_measurement_reflns_used    248
_cell_measurement_temperature    293(2)
_cell_measurement_theta_max      19.8600
_cell_measurement_theta_min      2.1230
_cell_volume                     898.69(6)
_computing_cell_refinement
;
CrysAlisPro, Agilent Technologies,
Version 1.171.37.34 (release 22-05-2014 CrysAlis171 .NET)
(compiled May 22 2014,16:03:01)
;
_computing_data_collection
;
CrysAlisPro, Agilent Technologies,
Version 1.171.37.34 (release 22-05-2014 CrysAlis171 .NET)
(compiled May 22 2014,16:03:01)
;
_computing_data_reduction
;
CrysAlisPro, Agilent Technologies,
Version 1.171.37.34 (release 22-05-2014 CrysAlis171 .NET)
(compiled May 22 2014,16:03:01)
;
_computing_molecular_graphics    'Olex2 (Dolomanov et al., 2009)'
_computing_publication_material  'Olex2 (Dolomanov et al., 2009)'
_computing_structure_refinement  'ShelXL (Sheldrick, 2008)'
_computing_structure_solution    'ShelXS (Sheldrick, 2008)'
_diffrn_ambient_environment      He
_diffrn_ambient_pressure         2.227e7(5)
_diffrn_ambient_temperature      293(2)
_diffrn_detector                 'CCD plate'
_diffrn_measured_fraction_theta_full 0.786
_diffrn_measured_fraction_theta_max 0.600
_diffrn_measurement_details
;
  1 phi    148.00  212.00   0.5000    1.0000
omega____ theta____ kappa____ phi______ frames
   0.0000    0.0000    0.0000     -     128
;
_diffrn_measurement_device       'abstract diffractometer'
_diffrn_measurement_device_type
'MAR-CrysAlisPro-abstract goniometer: imported MAR images'
_diffrn_measurement_method       '\p scans'
_diffrn_orient_matrix_UB_11      -0.0347914000
_diffrn_orient_matrix_UB_12      -0.0251594000
_diffrn_orient_matrix_UB_13      -0.0007726000
_diffrn_orient_matrix_UB_21      -0.0170992000
_diffrn_orient_matrix_UB_22      0.0246943000
_diffrn_orient_matrix_UB_23      -0.0306539000
_diffrn_orient_matrix_UB_31      0.0183771000
_diffrn_orient_matrix_UB_32      -0.0245121000
_diffrn_orient_matrix_UB_33      -0.0300692000
_diffrn_radiation_monochromator  synchrotron
_diffrn_radiation_probe          x-ray
_diffrn_radiation_wavelength     0.41427
_diffrn_reflns_av_R_equivalents  0.0222
_diffrn_reflns_av_unetI/netI     0.0165
_diffrn_reflns_laue_measured_fraction_full 0.786
_diffrn_reflns_laue_measured_fraction_max 0.600
_diffrn_reflns_limit_h_max       11
_diffrn_reflns_limit_h_min       -9
_diffrn_reflns_limit_k_max       13
_diffrn_reflns_limit_k_min       -12
_diffrn_reflns_limit_l_max       15
_diffrn_reflns_limit_l_min       -16
_diffrn_reflns_number            391
_diffrn_reflns_point_group_measured_fraction_full 0.786
_diffrn_reflns_point_group_measured_fraction_max 0.600
_diffrn_reflns_theta_full        14.392
_diffrn_reflns_theta_max         20.086
_diffrn_reflns_theta_min         2.131
_diffrn_source                   synchrotron
_exptl_absorpt_coefficient_mu    6.758
_exptl_absorpt_correction_T_max  1.00000
_exptl_absorpt_correction_T_min  0.54417
_exptl_absorpt_correction_type   multi-scan
_exptl_absorpt_process_details
;
CrysAlisPro, Agilent Technologies,
Version 1.171.37.34 (release 22-05-2014 CrysAlis171 .NET)
(compiled May 22 2014,16:03:01)
Empirical absorption correction using spherical harmonics,
 implemented in SCALE3 ABSPACK scaling algorithm.
;
_exptl_crystal_density_diffrn    5.849
_exptl_crystal_description       block
_exptl_crystal_F_000             1440
_exptl_crystal_size_max          0.065
_exptl_crystal_size_mid          0.04
_exptl_crystal_size_min          0.02
_refine_diff_density_max         0.546
_refine_diff_density_min         -0.468
_refine_diff_density_rms         0.147
_refine_ls_extinction_method     none
_refine_ls_goodness_of_fit_ref   1.184
_refine_ls_hydrogen_treatment    undef
_refine_ls_matrix_type           full
_refine_ls_number_parameters     8
_refine_ls_number_reflns         78
_refine_ls_number_restraints     0
_refine_ls_restrained_S_all      1.184
_refine_ls_R_factor_all          0.0467
_refine_ls_R_factor_gt           0.0448
_refine_ls_shift/su_max          0.000
_refine_ls_shift/su_mean         0.000
_refine_ls_structure_factor_coef Fsqd
_refine_ls_weighting_details
'w=1/[\s^2^(Fo^2^)+(0.0940P)^2^+1.0650P] where P=(Fo^2^+2Fc^2^)/3'
_refine_ls_weighting_scheme      calc
_refine_ls_wR_factor_gt          0.1316
_refine_ls_wR_factor_ref         0.1327
_reflns_Friedel_coverage         0.000
_reflns_number_gt                69
_reflns_number_total             78
_reflns_threshold_expression     'I > 2\s(I)'
_cod_data_source_file            cg5b00390_si_002.cif
_cod_data_source_block           marseno_021
_cod_original_cell_volume        898.69(12)
_cod_database_code               4513581
_shelx_space_group_comment
;
The symmetry employed for this shelxl refinement is uniquely defined
by the following loop, which should always be used as a source of
symmetry information in preference to the above space-group names.
They are only intended as comments.
;
_olex2_refinement_description
;
;
_shelx_res_file
;
    marseno_021.res created by SHELXL-2014/7

TITL marseno_021 in Fd-3m #227
CELL 0.41427 9.650215 9.650215 9.650215 90 90 90
ZERR 8 0.000439 0.000439 0.000439 0 0 0
LATT 4
SYMM -Y,0.25+X,0.25+Z
SYMM 0.25-X,0.25-Y,+Z
SYMM 0.25+Y,-X,0.25+Z
SYMM 0.25+X,-Z,0.25+Y
SYMM +X,0.25-Y,0.25-Z
SYMM 0.25+X,0.25+Z,-Y
SYMM 0.25+Z,0.25+Y,-X
SYMM 0.25-X,+Y,0.25-Z
SYMM -Z,0.25+Y,0.25+X
SYMM +Z,+X,+Y
SYMM +Y,+Z,+X
SYMM 0.25-Y,0.25-Z,+X
SYMM +Z,0.25-X,0.25-Y
SYMM 0.25-Y,+Z,0.25-X
SYMM 0.25-Z,0.25-X,+Y
SYMM 0.25-Z,+X,0.25-Y
SYMM +Y,0.25-Z,0.25-X
SYMM 0.25+Y,0.25+X,-Z
SYMM -Y,-X,-Z
SYMM -X,0.25+Z,0.25+Y
SYMM -X,-Z,-Y
SYMM 0.25+Z,-Y,0.25+X
SYMM -Z,-Y,-X

SFAC As O
DISP As 0.311 0.799 1882.762
DISP O 0.002 0.002 10.067
UNIT 32.00064 48

L.S. 10
PLAN  20
BOND
MORE -1
CONF
fmap 2
acta
OMIT 1 11 11
REM <HKL>E:/X-Ray_Data_Backup/ESRF_id09_2014_10/data/arsenolite/arseno_021/str
REM uct/olex2_marseno_021/marseno_021.hkl</HKL>

WGHT    0.094000    1.065000
FVAR       1.73671
O1    2    0.375000    0.375000    0.180435    10.25000    0.01516    0.01516 =
         0.01004    0.00000    0.00000   -0.00026
AS1   1    0.254683    0.254683    0.254683    10.16667    0.00977    0.00977 =
         0.00977   -0.00048   -0.00048   -0.00048
HKLF 4

REM  marseno_021 in Fd-3m #227
REM R1 =  0.0448 for      69 Fo > 4sig(Fo)  and  0.0467 for all      78 data
REM      8 parameters refined using      0 restraints

END

WGHT      0.0942      1.0609

REM Highest difference peak  0.546,  deepest hole -0.468,  1-sigma level  0.147
Q1    1   0.3750  0.3750  0.2369  10.25000  0.05    0.55
Q2    1   0.0473  0.2027  0.2027  10.16667  0.05    0.47
Q3    1   0.4497  0.3985  0.2301  11.00000  0.05    0.44
Q4    1   0.3918  0.4507  0.1954  11.00000  0.05    0.39
Q5    1   0.3750  0.3750  0.0967  10.25000  0.05    0.39
Q6    1   0.2795  0.2795  0.1771  10.50000  0.05    0.34
Q7    1   0.4075  0.3425  0.1277  10.50000  0.05    0.33
Q8    1   0.4699  0.3473  0.1951  11.00000  0.05    0.32
Q9    1   0.1764  0.2134  0.1764  10.50000  0.05    0.31
Q10   1   0.1250  0.1250  0.1250  10.04167  0.05    0.30
Q11   1   0.2906  0.4594  0.2906  10.16667  0.05    0.28
Q12   1   0.1250  0.2176  0.1250  10.25000  0.05    0.28
Q13   1   0.4027  0.2393  0.2393  10.50000  0.05    0.28
Q14   1   0.1584  0.1584  0.1961  10.50000  0.05    0.28
Q15   1   0.2500  0.5000  0.2500  10.08333  0.05    0.27
Q16   1   0.2570  0.2570  0.3046  10.50000  0.05    0.26
Q17   1   0.4451  0.3565  0.1075  11.00000  0.05    0.24
Q18   1   0.2381  0.2381  0.0119  10.16667  0.05    0.21
Q19   1   0.4828  0.2946  0.1821  11.00000  0.05    0.20
Q20   1   0.3064  0.3064  0.1645  10.50000  0.05    0.20
;
_shelx_res_checksum              91349
_shelx_hkl_file
;
   1  -1   1 59542.4 604.762   1
   1  -1  -1 59152.7 285.935   1
   0   0   2 4.92734 29.2956   1
   2  -2   0 7307.26 232.243   1
   0  -2   2 7582.42 287.637   1
  -2   2   0 7453.24 223.139   1
   1  -1  -3 9.13738 30.9385   1
   1  -1   3 5.55364 52.0367   1
  -1   3  -1 2.23777 51.3991   1
  -1   1  -3 20.7632 57.3305   1
  -1   3  -3 59335.5 1037.91   1
   3  -3  -1 59175.0 706.843   1
  -3   3   1 58232.8 661.468   1
  -3   3  -1 57810.2 848.819   1
   3  -1   3 59044.8 927.790   1
  -3   1  -3 58396.8 942.479   1
   3  -3   1 58306.6 876.356   1
   1  -3   3 57846.9 951.606   1
   3  -3   3 2145.61 214.324   1
  -3   3  -3 2150.61 195.517   1
   3  -3  -3 2325.56 86.8732   1
   0   2   4 3.08010 31.9579   1
   0   2  -4 37.6801 84.7154   1
   0  -2   4 24.5098 74.7181   1
  -2   4   0 32.9072 63.1373   1
  -2   0  -4 13.8398 62.7045   1
   2   0   4 37.2396 59.7995   1
   2  -2   4 33063.9 781.335   1
  -2   4  -2 31603.0 736.050   1
  -2   4   2 32556.2 487.669   1
  -2   2  -4 32444.9 754.110   1
   2  -4   2 32755.1 734.197   1
   2  -2  -4 31722.4 342.997   1
  -2   4   4 106.104 11.8506   1
  -4   2  -4 162.063 108.874   1
  -2   4  -4 122.452 107.918   1
  -4   4  -2 307.376 110.605   1
   4  -2   4 103.621 118.578   1
   2  -4   4 125.172 110.586   1
   4  -4  -2 218.933 70.4475   1
   4  -4   2 388.213 113.534   1
   1   1   5 24.0552 60.1938   1
  -1   1   5 160.123 65.9466   1
  -1   1  -5 122.380 90.7045   1
   1  -1   5 112.993 91.2674   1
  -1  -1   5 183.022 84.9150   1
   1   1  -5 104.937 94.9611   1
   1  -1  -5 200.074 80.9366   1
   1  -3   5 7473.47 407.486   1
  -3   1  -5 7005.65 384.763   1
   3  -5   1 6475.79 341.664   1
  -1   3   5 6978.68 208.954   1
  -3   5   1 6636.04 289.722   1
  -1   5  -3 7621.73 437.890   1
  -3   5  -1 6863.98 353.504   1
   3  -5  -1 6742.49 284.708   1
   3  -1   5 6843.34 394.679   1
  -1   3  -5 7911.62 437.164   1
   1  -5   3 6970.63 397.059   1
  -5   3  -3 1070.37 181.174   1
  -3   3  -5 998.640 173.427   1
  -3   5   3 984.714 84.7409   1
  -3   5  -3 504.905 155.236   1
   3  -3   5 862.622 186.884   1
   3  -5   3 729.419 159.583   1
   5  -3   3 1132.18 225.123   1
  -5   5   1 86944.3 1103.38   1
  -1   5  -5 85462.7 1654.15   1
   1  -5   5 86215.8 1527.79   1
   5  -5  -1 87152.8 1157.31   1
   5  -5   1 86605.9 1320.01   1
  -5   5  -1 86917.5 1257.58   1
   3  -5   5 2341.60 293.961   1
  -3   5  -5 2081.87 290.918   1
  -5   5  -3 2513.81 271.116   1
   5  -3   5 2473.53 336.154   1
  -5   3  -5 2385.52 285.839   1
   5  -5  -3 2414.52 176.651   1
   5  -5   3 2057.05 259.631   1
  -5   5  -5 4899.29 421.164   1
   5  -5   5 5128.75 449.379   1
   0  -2   6 3080.38 266.466   1
  -2   0  -6 2836.40 241.753   1
   2   0  -6 3350.07 243.806   1
   0   2   6 3846.15 241.134   1
   0   2  -6 3624.39 309.590   1
  -2   6   0 3060.16 254.953   1
   2   0   6 3516.19 295.730   1
   0  -4   6 96.0209 132.580   1
  -4   6   0 3.83898 95.7172   1
   0   4  -6 114.644 156.595   1
  -2   4  -6 58.4222 145.537   1
  -4   2  -6 149.102 143.777   1
   2  -4   6 60.6512 135.787   1
   4  -2   6 43.4408 150.559   1
   4  -6  -2 44.6365 71.3925   1
  -2   4   6 9.14635 20.3107   1
  -4   6   2 47.1908 68.7035   1
   2  -6   4 44.0787 122.545   1
  -6   4  -4 167.377 165.964   1
  -4   4  -6 26.4806 141.906   1
  -4   6  -4 10.8030 152.022   1
   4  -6   4 118.176 165.045   1
   4  -4   6 52.1036 170.813   1
   6  -6   0 21864.3 695.145   1
  -6   6   0 20426.6 651.003   1
   6  -6   4 1586.87 288.133   1
  -4   6  -6 1097.30 270.310   1
  -6   6  -4 900.016 215.936   1
   4  -6   6 891.136 267.402   1
  -6   4  -6 1188.68 261.056   1
   6  -4   6 1519.07 312.398   1
   6  -6  -4 1275.20 133.368   1
  -1   1  -7 5701.04 386.697   1
   1  -1  -7 5404.14 303.231   1
  -1  -1  -7 5632.95 318.556   1
  -1  -1   7 5738.53 363.757   1
   1  -1   7 5720.16 406.280   1
  -1   1   7 6222.05 325.940   1
   1   1   7 5856.44 360.709   1
   1   1  -7 5591.35 371.229   1
   3  -1  -7 5579.51 304.336   1
  -3   7  -1 5371.11 382.148   1
   1   3  -7 5463.76 449.677   1
   1  -3   7 5431.24 416.943   1
  -1   3   7 6231.25 295.161   1
  -3   7   1 5316.80 336.770   1
   3  -7   1 5868.49 385.522   1
  -1   3  -7 5432.56 426.403   1
   3  -1   7 5341.97 412.085   1
  -3   1  -7 5960.08 406.233   1
   3  -3  -7 81998.3 765.857   1
  -3   3  -7 83348.5 1575.11   1
   3  -3   7 87457.1 1780.73   1
   3  -7   3 80927.1 1548.31   1
  -3   7   3 77482.4 1003.58   1
  -3   7  -3 82169.1 1616.27   1
  -1   5   7 1962.20 156.992   1
  -1   5  -7 989.994 263.213   1
   7  -5   1 2449.91 367.792   1
   7  -5  -1 2902.27 324.048   1
  -5   7  -1 1621.65 238.861   1
   5  -7  -1 1629.44 194.792   1
  -5   7   1 1423.69 175.801   1
   5  -7   1 1396.94 225.453   1
   1  -5   7 1306.79 257.540   1
  -5   7  -3 6406.49 479.977   1
  -5   7   3 6096.14 267.063   1
   5  -3   7 6326.52 542.263   1
   3  -7   5 7055.12 522.733   1
   5  -3  -7 5443.78 224.879   1
   5  -7   3 6688.14 500.269   1
   3  -5   7 6889.95 546.009   1
   5  -7  -3 6630.34 305.883   1
  -3   7  -5 6497.50 523.243   1
  -5   3  -7 6179.83 482.846   1
  -3   7   5 5743.76 200.444   1
  -3   5  -7 6841.40 549.849   1
  -5   7  -5 5500.56 506.353   1
  -5   5  -7 6539.56 520.501   1
  -7   5  -5 5180.26 484.526   1
   5  -5   7 5853.37 561.664   1
   7  -5   5 6216.75 613.630   1
   5  -7   5 5794.90 511.940   1
   1  -7   7 30610.0 1129.96   1
   7  -7  -1 31047.7 888.606   1
  -1   7  -7 28039.2 1255.05   1
  -7   7  -1 32180.5 955.717   1
   7  -7   1 30169.6 969.913   1
   3  -7   7 12672.5 774.149   1
  -7   7  -3 13255.0 687.797   1
   7  -7   3 12758.9 730.919   1
   7  -7  -3 12558.3 497.205   1
  -3   7  -7 12225.2 796.146   1
  -5   7  -7 5530.85 565.943   1
  -7   7  -5 5354.10 503.782   1
   7  -7  -5 5017.79 230.255   1
  -7   5  -7 5369.84 558.004   1
   7  -7   5 6533.37 601.646   1
   5  -7   7 4689.67 554.515   1
   7  -5   7 7308.80 699.581   1
   0   2   8 128.093 112.130   1
   2   0  -8 38.7476 99.7377   1
   2   0   8 3.82420 147.434   1
   0   2  -8 30.0292 143.213   1
   0  -2   8 81.9170 141.154   1
  -2   2  -8 22223.9 823.045   1
  -2   2   8 23041.7 572.352   1
   2  -2  -8 22320.6 529.088   1
  -2   8  -2 22854.2 947.146   1
   2   2  -8 22511.5 880.521   1
   2  -2   8 22691.8 896.194   1
   2  -4   8 141.628 196.643   1
   4  -2   8 153.963 190.997   1
   4  -8   2 195.904 172.331   1
  -4   8  -2 231.850 178.393   1
  -4   8   2 364.290 134.343   1
  -4   2  -8 225.065 195.574   1
  -2   4   8 259.895 70.3295   1
  -2   4  -8 212.987 217.015   1
  -2   8  -4 222.240 241.982   1
   6  -8   0 12.7888 149.445   1
  -2   8  -6 3798.77 505.621   1
  -6   8  -2 3868.09 380.864   1
  -6   8   2 3511.40 254.888   1
   6  -8  -2 3135.84 261.825   1
   2  -8   6 3615.98 426.905   1
  -2   6   8 2237.61 112.919   1
  -2   6  -8 3791.81 469.189   1
   2  -6   8 3407.84 418.753   1
   8  -6   2 4423.59 521.836   1
   6  -8   2 3331.62 382.976   1
   6  -4   8 495.853 302.720   1
  -4   6  -8 238.685 249.629   1
   8  -6   4 427.643 331.072   1
  -6   8  -4 228.895 225.288   1
   4  -8   6 170.149 249.527   1
   6  -4  -8 49.7640 29.3834   1
  -6   4  -8 692.717 273.680   1
   8  -6  -4 158.298 132.570   1
  -4   8  -6 150.967 264.845   1
   6  -8   4 171.513 229.668   1
   8  -6  -6 156.355 79.2642   1
  -6   6  -8 439.121 261.048   1
  -8   6  -6 61.1126 220.545   1
  -6   8  -6 95.7649 263.358   1
   8  -8   2 644.839 269.873   1
  -2   8  -8 862.963 396.189   1
   8  -8  -2 280.967 172.500   1
  -8   8  -2 545.396 236.321   1
  -1   1  -9 28485.3 921.821   1
   1  -1  -9 28185.8 773.004   1
  -1   1   9 27847.6 792.667   1
  -1  -1  -9 27911.8 813.183   1
   1  -1   9 27700.3 965.920   1
   1   1   9 27832.8 884.864   1
   1   1  -9 28530.4 907.399   1
  -1  -1   9 26901.6 867.394   1
  -1  -3   9 10444.6 617.593   1
  -3   1  -9 11246.0 632.536   1
   1  -3   9 11563.0 659.071   1
  -1   3   9 11070.0 474.302   1
   3   1  -9 12091.0 684.872   1
  -3   9   1 9876.81 608.821   1
  -3   9  -1 9251.14 630.255   1
   1   3  -9 11187.0 698.096   1
   3  -1   9 10091.7 640.639   1
   3  -1  -9 10854.5 475.296   1
  -1   3  -9 11497.0 692.374   1
   1   3   9 11527.7 592.574   1
   3   1   9 9689.85 561.945   1
  -3   9  -3 481.604 256.928   1
  -3   9   3 513.200 189.173   1
  -3   3  -9 726.365 244.418   1
   3  -3   9 157.335 233.192   1
   5  -9  -1 13727.9 598.675   1
   5  -9   1 13918.7 680.740   1
   1  -5   9 14421.1 802.153   1
  -1   5   9 13092.6 436.295   1
  -1   5  -9 13413.5 820.486   1
  -5   9  -1 14517.0 712.118   1
  -5   9   1 13218.0 600.610   1
  -5   9   3 13254.2 488.911   1
   3  -5   9 13269.7 856.813   1
  -5   3  -9 13930.3 796.808   1
   5  -9   3 13599.4 764.936   1
   3  -9   5 11990.3 746.266   1
  -3   9   5 12286.2 478.059   1
  -3   9  -5 11822.7 825.770   1
   5  -3   9 13041.4 817.401   1
   5  -3  -9 11938.1 387.979   1
  -5   9  -3 13261.4 768.034   1
  -3   5  -9 11710.1 781.217   1
   5  -9   5 54907.1 1644.01   1
  -5   5  -9 53683.4 1571.21   1
  -5   9  -5 53761.4 1692.34   1
  -1   7  -9 327.552 334.224   1
   9  -7   1 599.967 339.344   1
   7  -9  -1 26.6421 140.719   1
   7  -9   1 159.295 193.554   1
  -7   9   1 172.236 143.571   1
  -7   9  -3 554.398 268.895   1
   9  -7  -3 296.728 172.217   1
  -3   9   7 597.955 76.1545   1
   7  -9  -3 722.876 172.471   1
   7  -9   3 348.991 254.371   1
  -3   7  -9 465.107 337.159   1
   9  -7  -5 1518.66 198.976   1
  -7   9  -5 1305.52 363.625   1
   9  -9  -1 24473.3 940.016   1
   9  -9   1 22942.3 1022.31   1
  -9   9  -3 17170.0 934.291   1
   9  -9  -3 18974.4 710.788   1
   0   0 -10 137.291 155.497   1
   0  -2  10 4434.54 423.263   1
  -2   0 -10 4587.43 410.922   1
   0   2  10 4124.36 365.982   1
   2   0  10 4156.46 425.339   1
   2   0 -10 4278.94 370.460   1
   0   2 -10 3977.78 423.826   1
  -4  10   0 117.405 189.632   1
   0   4 -10 92.8454 236.596   1
   0  -4  10 35.7371 216.539   1
   4   0 -10 191.707 196.001   1
  -4   2 -10 8.60100 223.426   1
  -2   4 -10 289.212 253.463   1
  -4  10   2 158.792 147.872   1
  -4  10  -2 23.7184 205.114   1
   2  -4  10 56.3626 228.255   1
   4  -2 -10 21.0898 120.984   1
  -4  10  -4 25.9054 260.180   1
  -4  10   4 100.857 135.062   1
   4 -10   4 277.479 271.091   1
   4  -4  10 162.307 288.246   1
  -6  10   0 3840.05 368.992   1
   0   6 -10 3996.25 597.721   1
   6 -10   0 3787.64 369.598   1
  -6  10   4 6588.46 345.508   1
  -6  10  -4 6604.90 627.563   1
   8 -10   0 198.677 220.823   1
  -8  10   0 56.8733 210.664   1
  10  -8  -2 90.2423 210.302   1
  10  -8   2 216.752 393.529   1
  -8  10  -2 122.657 232.156   1
  10 -10   0 14090.7 821.598   1
  10 -10  -2 141426. 2140.80   1
  -1   1 -11 17160.0 785.960   1
   1  -1 -11 16388.5 644.636   1
  -1  -1  11 16037.4 765.966   1
  -1   1  11 17058.9 707.830   1
   1  -1  11 16723.0 834.496   1
  -1  -1 -11 16509.0 706.701   1
   1   1  11 15993.3 787.589   1
   1   1 -11 15883.8 763.813   1
  -3   1 -11 15657.9 849.938   1
   1  -3  11 14268.5 814.506   1
  -1   3  11 14987.8 620.173   1
   3  -1  11 15289.9 887.308   1
   1   3  11 12967.9 676.374   1
   3   1 -11 13813.4 737.526   1
   3   1  11 14760.7 873.976   1
   1   3 -11 14531.8 854.351   1
   3  -1 -11 13725.5 611.908   1
  -1   3 -11 13220.1 815.069   1
  -3   3 -11 14830.3 835.508   1
   3  -3  11 13999.6 928.900   1
  -5  11  -1 143.613 224.996   1
  -1   5 -11 280.966 311.041   1
  -1   5  11 35.5278 162.291   1
   5  -3 -11 7072.68 303.437   1
   5 -11   3 7229.78 654.167   1
  -5  11  -3 7280.30 659.635   1
  -5  11   3 7733.47 485.174   1
  -5  11   5 4212.73 295.782   1
  -7  11  -1 19511.9 897.540   1
  -7  11   1 19360.4 782.640   1
   7 -11  -1 20533.1 841.790   1
   7 -11   1 19718.1 942.510   1
  -1   7  11 19775.0 642.254   1
  -7  11  -3 29153.8 1205.58   1
  -7  11   3 28360.0 814.277   1
   9 -11  -1 569.596 285.671   1
   9 -11   1 387.540 303.991   1
  -9  11  -1 451.930 291.830   1
  11 -11  -1 327.048 307.120   1
   0   0 -12 244967. 2809.32   1
   0   0  12 243580. 3000.15   1
   2   0 -12 333.280 216.379   1
   0  -2  12 8.59017 251.485   1
   2   0  12 91.8929 248.325   1
  -2   2 -12 5275.69 517.760   1
   2  -2 -12 5793.55 390.527   1
   2   2  12 5748.17 564.679   1
   2   2 -12 4730.61 522.390   1
   2  -2  12 4511.79 518.333   1
   0   4  12 293234. 3026.86   1
   4   0  12 293146. 4073.12   1
   4   0 -12 293072. 3140.25   1
   0   4 -12 291011. 4087.98   1
  -4   2 -12 52.6701 280.756   1
   4  -2 -12 436.660 161.641   1
  -6  12   0 86.4590 228.404   1
  -6  12  -2 370.053 334.543   1
  -6  12   2 220.166 231.195   1
  -8  12   0 163711. 2539.05   1
   8 -12   0 163299. 2641.84   1
  -8  12   2 684.593 267.186   1
  -8  12  -2 2046.03 335.326   1
   1   1 -13 13902.4 742.250   1
  -1   1 -13 16035.4 838.365   1
  -1  -1  13 14830.3 806.006   1
   1  -1 -13 15796.8 723.324   1
  -1   1  13 15501.7 761.719   1
   1  -1  13 13152.7 809.443   1
   1   1  13 16501.2 865.936   1
   3   1  13 1673.31 543.407   1
  -3   1 -13 1025.73 369.716   1
  -1   3  13 1338.49 304.135   1
  -1   3 -13 884.298 333.165   1
   3   1 -13 1019.18 320.111   1
   3  -1 -13 2019.26 301.818   1
   1   3 -13 1648.94 423.119   1
   1   3  13 1757.50 361.347   1
   5  -1 -13 17609.7 778.426   1
  -7  13  -1 4282.56 538.069   1
  -7  13   1 3263.89 456.327   1
  -9  13   1 20474.5 1050.85   1
   2   0 -14 53.7572 227.542   1
   2   0  14 3.42387 167.302   1
   0   2 -14 54.2978 284.443   1
   2   2  14 163981. 3164.08   1
   2   2 -14 166677. 2938.23   1
   1   1 -15 2257.30 398.853   1
  -1   1  15 2133.66 445.930   1
   1   1  15 1032.23 352.159   1
   1  -1 -15 2066.90 361.443   1
   3   1 -15 8598.39 684.674   1
   3  -1 -15 8782.74 558.553   1
   0   0 -16 168300. 2852.77   1
   2   0 -16 71.7921 301.948   1
   0   0   0    0.00    0.00   0
TITL marseno_021 in Fd-3m
REM Fd-3m (#227 in standard setting)
CELL 0.41427   9.650215   9.650215   9.650215  90.0000  90.0000  90.0000
ZERR    4.00   0.000439   0.000439   0.000439   0.0000   0.0000   0.0000
LATT  4
SYMM -x+3/4,-y+1/4, z+1/2
SYMM -x+1/4, y+1/2,-z+3/4
SYMM  x+1/2,-y+3/4,-z+1/4
SYMM  z, x, y
SYMM  z+1/2,-x+3/4,-y+1/4
SYMM -z+3/4,-x+1/4, y+1/2
SYMM -z+1/4, x+1/2,-y+3/4
SYMM  y, z, x
SYMM -y+1/4, z+1/2,-x+3/4
SYMM  y+1/2,-z+3/4,-x+1/4
SYMM -y+3/4,-z+1/4, x+1/2
SYMM  y+3/4, x+1/4,-z+1/2
SYMM -y,-x,-z
SYMM  y+1/4,-x+1/2, z+3/4
SYMM -y+1/2, x+3/4, z+1/4
SYMM  x+3/4, z+1/4,-y+1/2
SYMM -x+1/2, z+3/4, y+1/4
SYMM -x,-z,-y
SYMM  x+1/4,-z+1/2, y+3/4
SYMM  z+3/4, y+1/4,-x+1/2
SYMM  z+1/4,-y+1/2, x+3/4
SYMM -z+1/2, y+3/4, x+1/4
SYMM -z,-y,-x
SFAC O As
UNIT 24.00 16.00
TREF
HKLF 4
END
;
_shelx_hkl_checksum              78879
_shelx_shelxl_version_number     2014/7
loop_
_space_group_symop_operation_xyz
'x, y, z'
'-y, x+1/4, z+1/4'
'-x+1/4, -y+1/4, z'
'y+1/4, -x, z+1/4'
'x+1/4, -z, y+1/4'
'x, -y+1/4, -z+1/4'
'x+1/4, z+1/4, -y'
'z+1/4, y+1/4, -x'
'-x+1/4, y, -z+1/4'
'-z, y+1/4, x+1/4'
'z, x, y'
'y, z, x'
'-y+1/4, -z+1/4, x'
'z, -x+1/4, -y+1/4'
'-y+1/4, z, -x+1/4'
'-z+1/4, -x+1/4, y'
'-z+1/4, x, -y+1/4'
'y, -z+1/4, -x+1/4'
'y+1/4, x+1/4, -z'
'-y, -x, -z'
'-x, z+1/4, y+1/4'
'-x, -z, -y'
'z+1/4, -y, x+1/4'
'-z, -y, -x'
'x, y+1/2, z+1/2'
'-y, x+3/4, z+3/4'
'-x+1/4, -y+3/4, z+1/2'
'y+1/4, -x+1/2, z+3/4'
'x+1/4, -z+1/2, y+3/4'
'x, -y+3/4, -z+3/4'
'x+1/4, z+3/4, -y+1/2'
'z+1/4, y+3/4, -x+1/2'
'-x+1/4, y+1/2, -z+3/4'
'-z, y+3/4, x+3/4'
'z, x+1/2, y+1/2'
'y, z+1/2, x+1/2'
'-y+1/4, -z+3/4, x+1/2'
'z, -x+3/4, -y+3/4'
'-y+1/4, z+1/2, -x+3/4'
'-z+1/4, -x+3/4, y+1/2'
'-z+1/4, x+1/2, -y+3/4'
'y, -z+3/4, -x+3/4'
'y+1/4, x+3/4, -z+1/2'
'-y, -x+1/2, -z+1/2'
'-x, z+3/4, y+3/4'
'-x, -z+1/2, -y+1/2'
'z+1/4, -y+1/2, x+3/4'
'-z, -y+1/2, -x+1/2'
'x+1/2, y, z+1/2'
'-y+1/2, x+1/4, z+3/4'
'-x+3/4, -y+1/4, z+1/2'
'y+3/4, -x, z+3/4'
'x+3/4, -z, y+3/4'
'x+1/2, -y+1/4, -z+3/4'
'x+3/4, z+1/4, -y+1/2'
'z+3/4, y+1/4, -x+1/2'
'-x+3/4, y, -z+3/4'
'-z+1/2, y+1/4, x+3/4'
'z+1/2, x, y+1/2'
'y+1/2, z, x+1/2'
'-y+3/4, -z+1/4, x+1/2'
'z+1/2, -x+1/4, -y+3/4'
'-y+3/4, z, -x+3/4'
'-z+3/4, -x+1/4, y+1/2'
'-z+3/4, x, -y+3/4'
'y+1/2, -z+1/4, -x+3/4'
'y+3/4, x+1/4, -z+1/2'
'-y+1/2, -x, -z+1/2'
'-x+1/2, z+1/4, y+3/4'
'-x+1/2, -z, -y+1/2'
'z+3/4, -y, x+3/4'
'-z+1/2, -y, -x+1/2'
'x+1/2, y+1/2, z'
'-y+1/2, x+3/4, z+1/4'
'-x+3/4, -y+3/4, z'
'y+3/4, -x+1/2, z+1/4'
'x+3/4, -z+1/2, y+1/4'
'x+1/2, -y+3/4, -z+1/4'
'x+3/4, z+3/4, -y'
'z+3/4, y+3/4, -x'
'-x+3/4, y+1/2, -z+1/4'
'-z+1/2, y+3/4, x+1/4'
'z+1/2, x+1/2, y'
'y+1/2, z+1/2, x'
'-y+3/4, -z+3/4, x'
'z+1/2, -x+3/4, -y+1/4'
'-y+3/4, z+1/2, -x+1/4'
'-z+3/4, -x+3/4, y'
'-z+3/4, x+1/2, -y+1/4'
'y+1/2, -z+3/4, -x+1/4'
'y+3/4, x+3/4, -z'
'-y+1/2, -x+1/2, -z'
'-x+1/2, z+3/4, y+1/4'
'-x+1/2, -z+1/2, -y'
'z+3/4, -y+1/2, x+1/4'
'-z+1/2, -y+1/2, -x'
'-x, -y, -z'
'y, -x-1/4, -z-1/4'
'x-1/4, y-1/4, -z'
'-y-1/4, x, -z-1/4'
'-x-1/4, z, -y-1/4'
'-x, y-1/4, z-1/4'
'-x-1/4, -z-1/4, y'
'-z-1/4, -y-1/4, x'
'x-1/4, -y, z-1/4'
'z, -y-1/4, -x-1/4'
'-z, -x, -y'
'-y, -z, -x'
'y-1/4, z-1/4, -x'
'-z, x-1/4, y-1/4'
'y-1/4, -z, x-1/4'
'z-1/4, x-1/4, -y'
'z-1/4, -x, y-1/4'
'-y, z-1/4, x-1/4'
'-y-1/4, -x-1/4, z'
'y, x, z'
'x, -z-1/4, -y-1/4'
'x, z, y'
'-z-1/4, y, -x-1/4'
'z, y, x'
'-x, -y+1/2, -z+1/2'
'y, -x+1/4, -z+1/4'
'x-1/4, y+1/4, -z+1/2'
'-y-1/4, x+1/2, -z+1/4'
'-x-1/4, z+1/2, -y+1/4'
'-x, y+1/4, z+1/4'
'-x-1/4, -z+1/4, y+1/2'
'-z-1/4, -y+1/4, x+1/2'
'x-1/4, -y+1/2, z+1/4'
'z, -y+1/4, -x+1/4'
'-z, -x+1/2, -y+1/2'
'-y, -z+1/2, -x+1/2'
'y-1/4, z+1/4, -x+1/2'
'-z, x+1/4, y+1/4'
'y-1/4, -z+1/2, x+1/4'
'z-1/4, x+1/4, -y+1/2'
'z-1/4, -x+1/2, y+1/4'
'-y, z+1/4, x+1/4'
'-y-1/4, -x+1/4, z+1/2'
'y, x+1/2, z+1/2'
'x, -z+1/4, -y+1/4'
'x, z+1/2, y+1/2'
'-z-1/4, y+1/2, -x+1/4'
'z, y+1/2, x+1/2'
'-x+1/2, -y, -z+1/2'
'y+1/2, -x-1/4, -z+1/4'
'x+1/4, y-1/4, -z+1/2'
'-y+1/4, x, -z+1/4'
'-x+1/4, z, -y+1/4'
'-x+1/2, y-1/4, z+1/4'
'-x+1/4, -z-1/4, y+1/2'
'-z+1/4, -y-1/4, x+1/2'
'x+1/4, -y, z+1/4'
'z+1/2, -y-1/4, -x+1/4'
'-z+1/2, -x, -y+1/2'
'-y+1/2, -z, -x+1/2'
'y+1/4, z-1/4, -x+1/2'
'-z+1/2, x-1/4, y+1/4'
'y+1/4, -z, x+1/4'
'z+1/4, x-1/4, -y+1/2'
'z+1/4, -x, y+1/4'
'-y+1/2, z-1/4, x+1/4'
'-y+1/4, -x-1/4, z+1/2'
'y+1/2, x, z+1/2'
'x+1/2, -z-1/4, -y+1/4'
'x+1/2, z, y+1/2'
'-z+1/4, y, -x+1/4'
'z+1/2, y, x+1/2'
'-x+1/2, -y+1/2, -z'
'y+1/2, -x+1/4, -z-1/4'
'x+1/4, y+1/4, -z'
'-y+1/4, x+1/2, -z-1/4'
'-x+1/4, z+1/2, -y-1/4'
'-x+1/2, y+1/4, z-1/4'
'-x+1/4, -z+1/4, y'
'-z+1/4, -y+1/4, x'
'x+1/4, -y+1/2, z-1/4'
'z+1/2, -y+1/4, -x-1/4'
'-z+1/2, -x+1/2, -y'
'-y+1/2, -z+1/2, -x'
'y+1/4, z+1/4, -x'
'-z+1/2, x+1/4, y-1/4'
'y+1/4, -z+1/2, x-1/4'
'z+1/4, x+1/4, -y'
'z+1/4, -x+1/2, y-1/4'
'-y+1/2, z+1/4, x-1/4'
'-y+1/4, -x+1/4, z'
'y+1/2, x+1/2, z'
'x+1/2, -z+1/4, -y-1/4'
'x+1/2, z+1/2, y'
'-z+1/4, y+1/2, -x-1/4'
'z+1/2, y+1/2, x'
loop_
_atom_site_label
_atom_site_type_symbol
_atom_site_fract_x
_atom_site_fract_y
_atom_site_fract_z
_atom_site_U_iso_or_equiv
_atom_site_adp_type
_atom_site_occupancy
_atom_site_site_symmetry_order
_atom_site_calc_flag
_atom_site_refinement_flags_posn
_atom_site_refinement_flags_adp
_atom_site_refinement_flags_occupancy
O1 O 0.3750 0.3750 0.1804(4) 0.0135(10) Uani 1 4 d S T P
As1 As 0.25468(6) 0.25468(6) 0.25468(6) 0.0098(6) Uani 1 6 d S T P
loop_
_atom_site_aniso_label
_atom_site_aniso_U_11
_atom_site_aniso_U_22
_atom_site_aniso_U_33
_atom_site_aniso_U_23
_atom_site_aniso_U_13
_atom_site_aniso_U_12
O1 0.0152(13) 0.0152(13) 0.0100(18) 0.000 0.000 -0.0003(14)
As1 0.0098(6) 0.0098(6) 0.0098(6) -0.00048(8) -0.00048(8) -0.00048(8)
loop_
_atom_type_symbol
_atom_type_description
_atom_type_scat_dispersion_real
_atom_type_scat_dispersion_imag
_atom_type_scat_source
As As 0.3110 0.7990 'International Tables Vol C Tables 4.2.6.8 and 6.1.1.4'
O O 0.0020 0.0020 'International Tables Vol C Tables 4.2.6.8 and 6.1.1.4'
loop_
_geom_angle_atom_site_label_1
_geom_angle_atom_site_label_2
_geom_angle_atom_site_label_3
_geom_angle
_geom_angle_site_symmetry_1
_geom_angle_site_symmetry_3
As1 O1 As1 132.8(2) 75 .
O1 As1 O1 95.65(15) . 106_566
O1 As1 O1 95.65(15) . 101_656
O1 As1 O1 95.65(15) 106_566 101_656
loop_
_geom_bond_atom_site_label_1
_geom_bond_atom_site_label_2
_geom_bond_distance
_geom_bond_site_symmetry_2
O1 As1 1.7915(17) 75
O1 As1 1.7915(17) .
As1 O1 1.7915(17) 106_566
As1 O1 1.7915(17) 101_656
loop_
_geom_torsion_atom_site_label_1
_geom_torsion_atom_site_label_2
_geom_torsion_atom_site_label_3
_geom_torsion_atom_site_label_4
_geom_torsion
_geom_torsion_site_symmetry_1
_geom_torsion_site_symmetry_4
As1 O1 As1 O1 48.13(9) 75 106_566
As1 O1 As1 O1 -48.13(9) 75 101_656
