#------------------------------------------------------------------------------
#$Date: 2015-09-04 08:12:49 +0300 (Fri, 04 Sep 2015) $
#$Revision: 153928 $
#$URL: svn://www.crystallography.net/cod/cif/4/51/35/4513589.cif $
#------------------------------------------------------------------------------
#
# This file is available in the Crystallography Open Database (COD),
# http://www.crystallography.net/
#
# All data on this site have been placed in the public domain by the
# contributors.
#
data_4513589
loop_
_publ_author_name
'Gu\'nka, Piotr A.'
'Dziubek, Kamil F.'
'G\/ladysiak, Andrzej'
'Dranka, Maciej'
'Piechota, Jacek'
'Hanfland, Michael'
'Katrusiak, Andrzej'
'Zachara, Janusz'
_publ_section_title
;
 Compressed Arsenolite As4O6and Its Helium Clathrate As4O6&#x00B7;2He
;
_journal_issue                   8
_journal_name_full               'Crystal Growth &amp; Design'
_journal_page_first              3740
_journal_paper_doi               10.1021/acs.cgd.5b00390
_journal_volume                  15
_journal_year                    2015
_chemical_formula_moiety         '2(As2 O3)'
_chemical_formula_sum            'As4 O6'
_chemical_formula_weight         395.68
_space_group_crystal_system      cubic
_space_group_IT_number           227
_space_group_name_Hall           '-F 4vw 2vw 3'
_space_group_name_H-M_alt        'F d -3 m'
_symmetry_space_group_name_Hall  '-F 4vw 2vw 3'
_symmetry_space_group_name_H-M   'F d -3 m :2'
_atom_sites_solution_primary     direct
_audit_creation_date             2015-01-22
_audit_creation_method
;
Olex2 1.2-beta
(compiled 2015.01.19 svn.r3143 for OlexSys, GUI svn.r4992)
;
_cell_angle_alpha                90
_cell_angle_beta                 90
_cell_angle_gamma                90
_cell_formula_units_Z            8
_cell_length_a                   10.3525(3)
_cell_length_b                   10.3525(3)
_cell_length_c                   10.3525(3)
_cell_measurement_pressure       5.16e6(5)
_cell_measurement_reflns_used    429
_cell_measurement_temperature    293(2)
_cell_measurement_theta_max      20.1200
_cell_measurement_theta_min      1.9730
_cell_volume                     1109.52(6)
_computing_cell_refinement
;
CrysAlisPro, Agilent Technologies,
Version 1.171.37.35 (release 13-08-2014 CrysAlis171 .NET)
(compiled Aug 13 2014,18:06:01)
;
_computing_data_collection
;
CrysAlisPro, Agilent Technologies,
Version 1.171.37.35 (release 13-08-2014 CrysAlis171 .NET)
(compiled Aug 13 2014,18:06:01)
;
_computing_data_reduction
;
CrysAlisPro, Agilent Technologies,
Version 1.171.37.35 (release 13-08-2014 CrysAlis171 .NET)
(compiled Aug 13 2014,18:06:01)
;
_computing_molecular_graphics    'Olex2 (Dolomanov et al., 2009)'
_computing_publication_material  'Olex2 (Dolomanov et al., 2009)'
_computing_structure_refinement  'ShelXL (Sheldrick, 2008)'
_computing_structure_solution    'ShelXT (Sheldrick, 2015)'
_diffrn_ambient_environment      He
_diffrn_ambient_pressure         5.16e6(5)
_diffrn_ambient_temperature      293(2)
_diffrn_detector                 'CCD plate'
_diffrn_measured_fraction_theta_full 0.910
_diffrn_measured_fraction_theta_max 0.685
_diffrn_measurement_details
;
  1 phi    148.00  212.00   0.5000    1.0000
omega____ theta____ kappa____ phi______ frames
   0.0000    0.0000    0.0000     -     128
;
_diffrn_measurement_device       'abstract diffractometer'
_diffrn_measurement_device_type
'MAR-CrysAlisPro-abstract goniometer: imported MAR images'
_diffrn_measurement_method       '\p scans'
_diffrn_orient_matrix_UB_11      0.0008033000
_diffrn_orient_matrix_UB_12      0.0240793000
_diffrn_orient_matrix_UB_13      0.0319690000
_diffrn_orient_matrix_UB_21      0.0284870000
_diffrn_orient_matrix_UB_22      -0.0227466000
_diffrn_orient_matrix_UB_23      0.0164530000
_diffrn_orient_matrix_UB_31      0.0281089000
_diffrn_orient_matrix_UB_32      0.0224110000
_diffrn_orient_matrix_UB_33      -0.0175916000
_diffrn_radiation_monochromator  synchrotron
_diffrn_radiation_probe          x-ray
_diffrn_radiation_wavelength     0.41427
_diffrn_reflns_av_R_equivalents  0.0302
_diffrn_reflns_av_unetI/netI     0.0235
_diffrn_reflns_laue_measured_fraction_full 0.910
_diffrn_reflns_laue_measured_fraction_max 0.685
_diffrn_reflns_limit_h_max       17
_diffrn_reflns_limit_h_min       -17
_diffrn_reflns_limit_k_max       13
_diffrn_reflns_limit_k_min       -14
_diffrn_reflns_limit_l_max       10
_diffrn_reflns_limit_l_min       -11
_diffrn_reflns_number            553
_diffrn_reflns_point_group_measured_fraction_full 0.910
_diffrn_reflns_point_group_measured_fraction_max 0.685
_diffrn_reflns_theta_full        14.392
_diffrn_reflns_theta_max         20.241
_diffrn_reflns_theta_min         1.986
_diffrn_source                   synchrotron
_exptl_absorpt_coefficient_mu    5.474
_exptl_absorpt_correction_T_max  1.00000
_exptl_absorpt_correction_T_min  0.73372
_exptl_absorpt_correction_type   multi-scan
_exptl_absorpt_process_details
;
CrysAlisPro, Agilent Technologies,
Version 1.171.37.35 (release 13-08-2014 CrysAlis171 .NET)
(compiled Aug 13 2014,18:06:01)
Empirical absorption correction using spherical harmonics,
 implemented in SCALE3 ABSPACK scaling algorithm.
;
_exptl_crystal_density_diffrn    4.737
_exptl_crystal_description       block
_exptl_crystal_F_000             1440
_exptl_crystal_size_max          0.065
_exptl_crystal_size_mid          0.04
_exptl_crystal_size_min          0.02
_refine_diff_density_max         0.668
_refine_diff_density_min         -0.651
_refine_diff_density_rms         0.152
_refine_ls_extinction_method     none
_refine_ls_goodness_of_fit_ref   1.275
_refine_ls_hydrogen_treatment    undef
_refine_ls_matrix_type           full
_refine_ls_number_parameters     8
_refine_ls_number_reflns         111
_refine_ls_number_restraints     0
_refine_ls_restrained_S_all      1.275
_refine_ls_R_factor_all          0.0238
_refine_ls_R_factor_gt           0.0223
_refine_ls_shift/su_max          0.000
_refine_ls_shift/su_mean         0.000
_refine_ls_structure_factor_coef Fsqd
_refine_ls_weighting_details
'w=1/[\s^2^(Fo^2^)+(0.0260P)^2^+12.5950P] where P=(Fo^2^+2Fc^2^)/3'
_refine_ls_weighting_scheme      calc
_refine_ls_wR_factor_gt          0.0599
_refine_ls_wR_factor_ref         0.0621
_reflns_Friedel_coverage         0.000
_reflns_number_gt                106
_reflns_number_total             111
_reflns_threshold_expression     'I > 2\s(I)'
_cod_data_source_file            cg5b00390_si_002.cif
_cod_data_source_block           marseno_029
_cod_original_cell_volume        1109.53(10)
_cod_database_code               4513589
_chemical_oxdiff_formula         'As4 O6'
_shelx_space_group_comment
;
The symmetry employed for this shelxl refinement is uniquely defined
by the following loop, which should always be used as a source of
symmetry information in preference to the above space-group names.
They are only intended as comments.
;
_olex2_refinement_description
;
;
_shelx_res_file
;
    marseno_029.res created by SHELXL-2014/7

TITL marseno_029_a.res in Fd-3m
REM Old TITL marseno_029 in Fd-3m #227
CELL 0.41427 10.352527 10.352527 10.352527 90 90 90
ZERR 8 0.000315 0.000315 0.000315 0 0 0
LATT 4
SYMM 0.75-X,0.25-Y,0.5+Z
SYMM 0.25-X,0.5+Y,0.75-Z
SYMM 0.5+X,0.75-Y,0.25-Z
SYMM +Z,+X,+Y
SYMM 0.5+Z,0.75-X,0.25-Y
SYMM 0.75-Z,0.25-X,0.5+Y
SYMM 0.25-Z,0.5+X,0.75-Y
SYMM +Y,+Z,+X
SYMM 0.25-Y,0.5+Z,0.75-X
SYMM 0.5+Y,0.75-Z,0.25-X
SYMM 0.75-Y,0.25-Z,0.5+X
SYMM 0.75+Y,0.25+X,0.5-Z
SYMM -Y,-X,-Z
SYMM 0.25+Y,0.5-X,0.75+Z
SYMM 0.5-Y,0.75+X,0.25+Z
SYMM 0.75+X,0.25+Z,0.5-Y
SYMM 0.5-X,0.75+Z,0.25+Y
SYMM -X,-Z,-Y
SYMM 0.25+X,0.5-Z,0.75+Y
SYMM 0.75+Z,0.25+Y,0.5-X
SYMM 0.25+Z,0.5-Y,0.75+X
SYMM 0.5-Z,0.75+Y,0.25+X
SYMM -Z,-Y,-X
SFAC O As
DISP As 0.311 0.799 1882.762
DISP O 0.002 0.002 10.067
UNIT 48 32

L.S. 10
PLAN  20
BOND $H
LIST 6
fmap 2
acta
REM <olex2.extras>
REM <HklSrc "%.\\marseno_029.hkl">
REM </olex2.extras>

WGHT    0.026000   12.595000
FVAR       1.40499
AS1   2    0.264011    0.264011    0.264011    10.16667    0.01224    0.01224 =
         0.01224   -0.00046   -0.00046   -0.00046
O1    1    0.375000    0.375000    0.190273    10.25000    0.01342    0.01342 =
         0.01190    0.00000    0.00000   -0.00089
HKLF 4

REM  marseno_029_a.res in Fd-3m
REM R1 =  0.0223 for     106 Fo > 4sig(Fo)  and  0.0238 for all     111 data
REM      8 parameters refined using      0 restraints

END

WGHT      0.0261     12.5307

REM Highest difference peak  0.668,  deepest hole -0.651,  1-sigma level  0.152
Q1    1   0.1719  0.2638  0.2638  10.50000  0.05    0.67
Q2    1   0.2640  0.2640  0.3239  10.50000  0.05    0.65
Q3    1   0.3025  0.4475  0.3025  10.16667  0.05    0.50
Q4    1   0.2886  0.1915  0.2655  11.00000  0.05    0.49
Q5    1   0.2500  0.5000  0.2500  10.08333  0.05    0.48
Q6    1   0.5000  0.5000  0.0000  10.08333  0.05    0.44
Q7    1   0.2049  0.2049  0.2049  10.16667  0.05    0.43
Q8    1   0.2675  0.1831  0.1831  10.50000  0.05    0.41
Q9    1   0.3093  0.4407  0.2038  10.50000  0.05    0.41
Q10   1   0.3750  0.3750  0.2516  10.25000  0.05    0.40
Q11   1   0.3750  0.3750  0.1363  10.25000  0.05    0.37
Q12   1   0.4491  0.3828  0.1972  11.00000  0.05    0.31
Q13   1   0.4406  0.4406  0.0964  10.50000  0.05    0.29
Q14   1   0.3882  0.4216  0.2345  11.00000  0.05    0.28
Q15   1   0.3293  0.3813  0.1644  11.00000  0.05    0.28
Q16   1   0.3750  0.3750  0.0217  10.25000  0.05    0.25
Q17   1   0.4210  0.4818  0.0704  11.00000  0.05    0.24
Q18   1   0.2434  0.2434  0.1391  10.50000  0.05    0.22
Q19   1   0.2366  0.1807  0.0693  10.50000  0.05    0.18
Q20   1   0.2247  0.1586  0.1586  10.50000  0.05    0.17
;
_shelx_res_checksum              46664
_shelx_hkl_file
;
   1  -1   1 118538. 1252.88   1
  -1   1  -1 111793. 1217.04   1
  -2   0   0 3.85070 5.22734   1
   2   0   0 3.28859 5.01113   1
   0  -2   2 248.527 54.3098   1
   2  -2   0 248.104 76.0150   1
   0   2  -2 230.760 62.0446   1
  -2   2   0 206.991 66.1207   1
   3  -1   1 1702.08 190.262   1
   1  -3   1 1924.65 218.225   1
  -1   3  -1 1975.99 209.056   1
   3   1  -1 1800.14 129.580   1
  -3  -1   1 1962.47 128.973   1
  -3   1  -1 2014.14 210.774   1
   1   3  -3 125909. 1509.48   1
   1  -3   3 131382. 1839.41   1
  -1   3  -3 124838. 1962.88   1
  -3   1  -3 122756. 2104.19   1
  -3   3  -1 131574. 2098.59   1
  -1  -3   3 127988. 1463.69   1
   3  -1   3 120268. 2148.36   1
   3  -3   1 136874. 2163.40   1
   3   3  -3 29762.4 435.810   1
   3  -3   3 32018.3 1064.81   1
   4   0   2 9.47836 30.9282   1
   0  -4   2 39.8644 27.5546   1
   2  -4   2 38350.7 1176.54   1
  -2   2  -4 41203.5 1257.54   1
  -2   4  -2 36409.2 1167.66   1
  -2  -4   2 38292.1 755.197   1
   4  -2   2 36727.1 1151.95   1
   4   2  -2 35868.0 484.259   1
  -4   2  -2 40473.4 1266.90   1
   2   4  -4 13980.6 542.183   1
   4  -2   4 12285.8 752.467   1
  -4   2  -4 13370.3 781.776   1
  -4   4  -2 14204.3 844.546   1
   2  -4   4 12075.1 674.246   1
   4  -4   2 14230.7 856.944   1
  -2   4  -4 13602.2 782.417   1
  -5   1  -1 30651.7 1035.57   1
  -5  -1  -1 32168.5 953.954   1
  -5   1   1 33457.3 997.887   1
   5   1  -1 33339.2 823.139   1
   5  -1  -1 34765.4 1080.99   1
   5  -1   1 32599.8 1072.77   1
  -5  -1   1 33679.6 842.165   1
  -5   3  -1 18802.9 940.175   1
  -1   5  -3 19699.0 879.780   1
   5  -3   1 20124.3 979.143   1
   5  -1   3 19531.2 908.947   1
  -3   5  -1 20687.5 979.848   1
  -1  -5   3 19198.4 721.239   1
  -5   1  -3 20920.5 965.281   1
  -5  -3   1 18030.2 472.887   1
   1   5  -3 19798.9 717.193   1
   3  -5   1 20479.5 1053.57   1
  -1   3  -5 20248.9 917.503   1
   1  -5   3 19996.9 889.918   1
  -5   3  -3 1603.38 285.852   1
  -3  -5   3 1572.70 156.375   1
   3  -3   5 1158.00 239.755   1
  -3   3  -5 1618.14 281.338   1
  -3   5  -3 1508.18 276.752   1
   5  -3   3 1257.76 256.999   1
   3  -5   3 1772.97 301.419   1
  -1  -5   5 237286. 2744.30   1
   1  -5   5 240910. 3205.17   1
  -5   5  -1 234199. 3667.85   1
   5  -5   1 245627. 4013.72   1
   1   5  -5 227760. 2868.74   1
  -1   5  -5 242234. 3361.98   1
   3   5  -5 25802.1 743.524   1
  -5   3  -5 27362.0 1381.87   1
   5  -5   3 26535.4 1314.60   1
   5  -3   5 25293.2 1219.03   1
  -3   5  -5 28200.1 1290.14   1
   3  -5   5 26912.3 1188.71   1
  -5   5  -3 25804.9 1286.43   1
  -5   5  -5 106136. 2792.68   1
   5  -5   5 100059. 2573.74   1
   6   0   0 12.6875 5.62097   1
   6  -2   0 56.5688 42.4879   1
   0  -6   2 30.0578 19.0841   1
   6   0   2 81.7075 60.0103   1
  -6   2   0 14.3640 13.0263   1
   6   0  -2 38.5037 47.0420   1
  -6   0  -2 73.1045 73.2411   1
  -6  -2   0 76.1010 41.6229   1
   6  -4   0 5.86253 15.9168   1
  -6   4   0 45.3575 50.9570   1
   0   4  -6 52.1531 39.4523   1
  -4   6  -2 5513.49 572.739   1
  -2   6  -4 5668.44 559.798   1
   4  -6   2 4853.85 562.466   1
   2   6  -4 5269.97 393.354   1
  -6   4  -2 5642.43 593.288   1
  -6   2  -4 5562.85 584.675   1
  -2   4  -6 5158.75 543.924   1
  -2  -6   4 4766.69 360.208   1
   6  -4   2 5054.58 581.597   1
  -6  -4   2 3971.98 181.268   1
   2  -6   4 5512.00 530.676   1
   2  -4   6 4790.98 517.890   1
   6  -2   4 5140.43 541.785   1
  -6   4  -4 6028.83 651.970   1
   6  -4   4 6053.39 611.352   1
   4  -6   4 6604.77 659.453   1
  -4   6  -4 6190.87 659.404   1
  -4  -6   4 6096.44 296.530   1
   4  -4   6 6011.28 619.083   1
  -4   4  -6 6682.74 701.174   1
   0   6  -6 114555. 2391.96   1
   0  -6   6 110379. 2246.44   1
   6  -6   2 261581. 4653.45   1
   2   6  -6 278673. 3135.42   1
  -4   6  -6 8660.84 813.359   1
  -6   6  -4 8256.76 839.141   1
   6  -6   4 8654.31 843.589   1
   4  -6   6 8069.78 746.691   1
   4   6  -6 8471.39 458.273   1
   6  -4   6 7374.67 738.142   1
  -6   4  -6 9152.53 909.991   1
  -6   6  -6 147835. 3605.46   1
   6  -6   6 144288. 3501.21   1
  -7  -1   1 26763.5 934.588   1
   7   1  -1 25059.3 845.257   1
   7  -1  -1 26818.8 1094.43   1
  -7  -1  -1 27429.3 1080.29   1
  -7   1  -1 24551.1 1084.18   1
  -7   1   1 27447.7 1077.09   1
   7  -1   1 25489.9 1064.82   1
   7   1   1 29542.2 1115.08   1
   1  -7   3 62811.4 1794.40   1
   7  -3  -1 65970.3 2069.64   1
   7  -3   1 64634.9 2054.55   1
  -1   7  -3 61119.3 1708.71   1
  -7   3  -1 62036.6 1941.97   1
  -7  -3   1 64180.0 1223.93   1
   7   1  -3 62468.5 1352.14   1
   7  -1   3 57041.8 1769.24   1
  -1  -7   3 60898.7 1552.20   1
  -7   3   1 61632.9 1800.53   1
  -7   1  -3 68048.6 2070.68   1
   7  -3   3 220234. 3651.72   1
  -3  -7   3 224544. 2532.24   1
  -7   3  -3 226127. 3838.78   1
  -3   7  -3 219234. 3650.40   1
   7   3  -3 229703. 1756.85   1
   3  -7   3 227197. 3857.74   1
   1   5  -7 7155.66 595.817   1
   1  -7   5 6925.42 600.750   1
  -7   5  -1 6903.55 693.753   1
  -1  -7   5 6855.94 505.872   1
   1   7  -5 7480.32 564.120   1
   7  -5   1 6940.52 743.816   1
  -1   7  -5 7249.10 644.975   1
  -1   5  -7 6984.94 675.044   1
   3   7  -5 15454.2 686.924   1
  -7   5  -3 14520.6 1107.58   1
  -3   7  -5 13853.4 989.030   1
   3  -5   7 14619.0 1063.66   1
  -5  -7   3 12372.1 443.214   1
   3   5  -7 12565.9 659.125   1
   5  -7   3 14492.0 1128.12   1
  -3  -7   5 14186.3 613.400   1
  -5   7  -3 13884.7 1039.44   1
   7   3  -5 12312.5 447.473   1
   7  -3   5 15093.6 1049.94   1
  -3   5  -7 14250.9 1038.38   1
  -7   3  -5 14789.7 1134.61   1
   7  -5   3 14450.7 1068.07   1
   3  -7   5 14295.2 983.135   1
   5   5  -7 3675.18 289.872   1
  -5   7  -5 4030.40 569.751   1
  -7   5  -5 4018.33 578.213   1
  -5   5  -7 4015.20 621.373   1
   5  -7   5 4543.14 609.313   1
   5  -5   7 3394.74 510.885   1
   7  -5   5 3857.26 567.744   1
   7  -7   1 71025.5 2651.37   1
  -7   7  -1 74433.8 2472.90   1
   1   7  -7 77497.8 1993.30   1
  -1   7  -7 79808.2 2246.93   1
   1  -7   7 77557.8 2151.83   1
  -1  -7   7 81914.9 2048.43   1
   7  -7   3 103709. 3315.34   1
  -7   7  -3 102221. 3041.61   1
   3   7  -7 98982.2 1967.65   1
   3  -7   7 98647.1 2625.66   1
  -3   7  -7 101247. 2789.66   1
   7  -7   5 17290.7 1290.06   1
   7  -5   7 16552.6 1251.43   1
  -5   7  -7 17513.3 1284.31   1
   5  -7   7 17764.0 1226.17   1
  -7   5  -7 19553.3 1490.56   1
   5   7  -7 17318.2 624.419   1
  -7   7  -5 18615.8 1416.00   1
  -7   7  -7 132108. 3904.33   1
   7  -7   7 125704. 3616.43   1
   8  -2   0 70.7663 115.518   1
  -8   2  -2 11488.2 862.967   1
   8  -2  -2 11912.2 853.165   1
  -8  -2   2 13160.8 612.395   1
   8   2  -2 13031.4 598.842   1
   8  -2   2 11653.4 822.380   1
   8  -4   0 253018. 4330.08   1
   0  -8   4 265142. 3758.51   1
  -8  -4   0 269173. 2975.32   1
  -8   4   0 261390. 4202.12   1
   0   8  -4 254008. 3667.55   1
  -8   4  -2 22903.8 1333.69   1
   4  -8   2 20667.4 1347.82   1
  -2   8  -4 22248.7 1198.79   1
   8   2  -4 22544.1 762.770   1
  -2  -8   4 22416.6 953.634   1
   2  -8   4 22624.5 1241.74   1
  -8   2  -4 24850.7 1464.43   1
  -8  -4   2 21111.3 630.973   1
   8  -2   4 23377.1 1287.53   1
   8  -4   2 22191.6 1323.73   1
  -8   4  -4 148601. 3528.61   1
   8  -4   4 149033. 3438.27   1
   4  -8   4 151054. 3652.06   1
  -4   8  -4 145934. 3386.81   1
  -4  -8   4 148260. 2012.59   1
   0  -8   6 126.802 71.6932   1
   0   8  -6 65.6094 81.0609   1
   0   6  -8 96.1074 118.477   1
   8  -6   0 63.0959 17.3045   1
   2   6  -8 5688.71 543.125   1
  -2   8  -6 7281.43 746.729   1
   6  -8   2 6083.18 777.598   1
  -2  -8   6 5985.97 493.772   1
   8  -6   2 6426.79 816.553   1
  -8  -6   2 4973.77 270.741   1
  -2   6  -8 6176.11 714.700   1
   2   8  -6 6277.22 522.118   1
  -6   8  -2 5546.37 707.541   1
  -8   6  -2 6135.20 697.201   1
   2  -8   6 5730.88 604.780   1
   8  -6   4 12877.6 1140.73   1
  -4   8  -6 12967.5 1107.58   1
   4  -6   8 12225.7 1109.94   1
   4  -8   6 12068.7 970.743   1
  -8   6  -4 12868.8 1167.27   1
  -6   8  -4 12343.3 1074.98   1
  -8   4  -6 13125.5 1184.89   1
  -4   6  -8 13776.2 1199.70   1
   6  -8   4 12163.0 1138.03   1
   4   6  -8 11384.3 658.842   1
   8  -4   6 12859.8 1077.34   1
   6  -6   8 13000.5 1157.76   1
  -8   6  -6 15828.1 1319.52   1
   6  -8   6 13803.5 1155.90   1
   6   6  -8 12130.6 527.191   1
   8  -6   6 14606.1 1243.82   1
  -6   6  -8 16384.8 1368.15   1
  -6   8  -6 14716.2 1283.98   1
   0  -8   8 83465.6 2442.38   1
   0   8  -8 72050.1 2200.90   1
  -2   8  -8 47259.6 1986.94   1
   2   8  -8 46211.6 1583.45   1
   8  -8   2 46652.0 2431.97   1
   2  -8   8 44626.5 1831.71   1
  -8   8  -2 45561.9 2148.33   1
   4   8  -8 111781. 2125.88   1
  -4   8  -8 113103. 3376.74   1
  -8   8  -4 107817. 3432.91   1
   4  -8   8 109286. 3136.65   1
   8  -8   4 108383. 3712.07   1
   8  -8   6 26216.9 1776.76   1
   6  -8   8 27541.9 1743.22   1
   9   1   1 99723.4 2285.62   1
  -9   1  -1 97014.6 2497.76   1
   9   1  -1 99911.5 2038.75   1
  -9  -1  -1 104726. 2463.82   1
   9  -1  -1 98549.6 2445.34   1
  -9   1   1 99226.8 2328.54   1
  -9  -1   1 98618.4 2071.12   1
  -1  -9   3 45483.1 1654.57   1
   9  -1  -3 45482.0 1646.48   1
   1  -9   3 43068.2 1773.62   1
   9  -3  -1 47205.3 1865.73   1
  -9   3  -1 47930.8 1850.51   1
  -9  -1  -3 50447.3 1932.87   1
  -9   3   1 45862.5 1752.28   1
  -9   1  -3 50833.9 1965.47   1
   9   1  -3 50766.2 1470.42   1
   9  -1   3 50027.4 1858.39   1
   9  -3   1 47803.2 1924.53   1
  -9  -3   1 47300.1 1288.70   1
  -9  -3  -1 48599.5 1589.54   1
   3  -9   3 1052.62 299.395   1
   9  -3   3 1436.37 325.228   1
   9   3  -3 1425.52 184.440   1
  -3  -9   3 1036.83 224.210   1
  -9   3  -3 1177.93 310.223   1
   9  -5   1 88406.0 2931.72   1
  -9  -5   1 84530.4 1628.34   1
   1  -9   5 87211.7 2450.97   1
  -1  -9   5 83258.5 2115.61   1
  -1   9  -5 84754.7 2354.57   1
   1   9  -5 90250.3 2161.38   1
  -9   5  -1 81061.9 2599.83   1
  -9   5  -3 33979.9 1822.93   1
  -3  -9   5 34254.2 1165.58   1
   5  -9   3 33443.8 1872.13   1
  -9   3  -5 34184.4 1858.67   1
   9   3  -5 32439.2 838.634   1
   9  -3   5 32602.6 1722.05   1
   3  -9   5 33549.5 1683.45   1
  -5   9  -3 29938.2 1628.05   1
  -3   9  -5 32064.1 1568.82   1
   9  -5   3 32656.9 1802.28   1
  -5   9  -5 134518. 3598.11   1
   5  -9   5 137659. 3756.48   1
  -9   5  -5 136405. 3788.15   1
   9  -5   5 128373. 3587.49   1
  -5  -9   5 129390. 1761.52   1
  -1  -9   7 1214.18 244.028   1
  -9   7  -1 870.487 303.121   1
  -1   7  -9 1625.57 397.031   1
   1   7  -9 749.711 245.250   1
   1   9  -7 1374.83 296.881   1
  -1   9  -7 1558.21 334.738   1
   1  -9   7 953.938 256.117   1
   9  -7   1 863.047 294.802   1
  -3   9  -7 5269.10 690.975   1
  -3  -9   7 5043.01 470.207   1
   7  -9   3 4530.76 758.563   1
  -7   9  -3 3865.84 638.216   1
   3  -9   7 4985.87 638.411   1
  -7  -9   3 3240.70 254.890   1
   9  -7   3 4367.08 750.956   1
   3   7  -9 4021.27 471.223   1
  -3   7  -9 4642.78 712.484   1
   3   9  -7 4963.92 469.817   1
  -9   7  -3 4781.05 714.782   1
   9  -7   5 2066.67 477.591   1
   5  -7   9 1924.33 482.447   1
  -5   7  -9 1950.74 528.979   1
   5   7  -9 2609.74 310.197   1
   5  -9   7 1767.08 425.101   1
  -5   9  -7 2431.30 503.329   1
   9  -5   7 2935.65 569.937   1
   7  -9   5 2762.44 574.226   1
   1   9  -9 55563.0 2028.26   1
   1  -9   9 51289.6 2161.38   1
  -1   9  -9 54000.4 2163.74   1
   3   9  -9 38756.2 1498.75   1
  -3   9  -9 36365.1 1964.48   1
   3  -9   9 38507.9 1899.71   1
   5  -9   9 71823.2 2845.67   1
 -10   0   0 35.3099 41.4540   1
 -10  -2   0 13722.5 836.962   1
 -10   0  -2 14500.8 1016.42   1
 -10   2   0 16017.2 1080.05   1
  10   0  -2 14502.6 900.615   1
  10  -2   0 14548.8 1042.42   1
  10   0   2 14295.7 960.554   1
 -10  -2  -2 143114. 3162.48   1
 -10   2  -2 141550. 3434.35   1
  10  -2   2 143552. 3278.10   1
  10  -2  -2 147596. 3304.17   1
  10   2  -2 151316. 2402.55   1
 -10  -2   2 153630. 2451.02   1
 -10  -4   0 35.7471 65.8822   1
   0 -10   4 108.250 97.0028   1
 -10   0  -4 72.4892 86.4722   1
  10   0  -4 8.20525 35.3641   1
 -10   4  -2 6295.38 779.467   1
  -2 -10   4 5412.60 535.489   1
   2 -10   4 5344.39 708.312   1
 -10   2  -4 6764.27 809.160   1
  10  -2   4 6187.25 722.135   1
  10   2  -4 5928.74 463.027   1
 -10  -4   2 6138.19 440.313   1
  10  -4   2 6209.65 769.157   1
   4 -10   4 947.962 333.075   1
  -4  10  -4 1202.74 322.118   1
  10  -4   4 1736.77 403.240   1
 -10   4  -4 1957.07 442.339   1
  -4 -10   4 1632.69 261.333   1
   0 -10   6 14852.9 1023.93   1
  10  -6   0 14906.7 1327.33   1
   0  10  -6 13421.4 934.692   1
 -10  -6   2 62991.0 1199.15   1
  -2 -10   6 70578.6 1851.29   1
  10   2  -6 70331.5 1671.65   1
  10  -6   2 73560.8 3013.49   1
  -2  10  -6 69608.2 2356.28   1
 -10   6  -2 71618.4 2696.21   1
   2 -10   6 72875.5 2515.94   1
  10  -6   4 42692.1 2188.82   1
  -4 -10   6 43997.0 1281.37   1
   6 -10   4 43562.5 2447.64   1
  -6 -10   4 39680.4 1070.93   1
  -6  10  -4 38660.6 1999.88   1
  10  -4   6 44652.1 2215.84   1
  -4  10  -6 46938.6 2165.95   1
   4 -10   6 44272.3 2149.37   1
   6 -10   6 38080.2 2210.00   1
   0 -10   8 49.9868 73.9457   1
  -2   8 -10 6.40588 88.4688   1
 -10  -8   2 19.1549 25.3010   1
  -2  10  -8 221.829 190.313   1
  -2 -10   8 163.969 94.5447   1
   2 -10   8 107.733 69.2023   1
   4   8 -10 2970.88 389.991   1
   4 -10   8 3381.65 567.982   1
   6   8 -10 8609.26 557.199   1
   0  10 -10 74131.1 2628.35   1
   2  10 -10 20015.9 1238.83   1
  -2  10 -10 19822.3 1492.02   1
   2 -10  10 19424.5 1449.94   1
   4  10 -10 30786.6 1324.31   1
 -11   1  -1 67576.3 2385.39   1
  11   1   1 64562.9 2121.76   1
 -11  -1  -1 61004.2 2041.10   1
  11  -1   1 63049.4 2146.69   1
  11   1  -1 65031.0 1904.74   1
 -11   1   1 63453.8 2048.63   1
  11  -1  -1 65206.2 2201.07   1
 -11  -1   1 68358.2 1998.26   1
 -11  -3   1 52677.1 1607.19   1
 -11   1  -3 52212.9 2180.07   1
 -11   3   1 53823.2 2075.26   1
  11  -1  -3 54363.4 1983.66   1
 -11  -3  -1 52227.9 1855.79   1
  11  -3  -1 53000.3 2260.55   1
 -11  -1  -3 54214.7 2241.83   1
  11  -1   3 54102.6 2119.11   1
  11   1  -3 55804.6 1707.94   1
 -11   3  -1 51882.2 2141.67   1
  11  -3   1 53133.0 2241.67   1
 -11   3  -3 74178.7 2794.84   1
  11  -3   3 72684.6 2631.81   1
 -11  -5   1 3586.49 370.495   1
 -11   5  -1 4233.69 641.572   1
  11   1  -5 4710.55 496.855   1
 -11   1  -5 3818.24 698.286   1
  11  -5   1 4337.03 711.353   1
   1 -11   5 4752.20 665.221   1
  -1 -11   5 4590.74 600.385   1
  11  -5  -1 4319.65 708.729   1
 -11   5  -3 22254.5 1580.70   1
  11  -5   3 19650.2 1477.64   1
  11   3  -5 21864.9 780.535   1
 -11   3  -5 22779.0 1677.40   1
   3 -11   5 21048.5 1555.64   1
  -3 -11   5 19980.1 1060.05   1
  -3  11  -5 19603.4 1349.61   1
  11  -3   5 22409.3 1538.95   1
   5 -11   5 16813.1 1481.97   1
  -5 -11   5 15866.6 805.033   1
   1 -11   7 46285.3 1898.44   1
  -1 -11   7 49006.3 1756.74   1
  11  -7   1 47683.6 2741.31   1
 -11  -7   1 43732.9 1266.83   1
   1  11  -7 48526.0 1835.00   1
  -1  11  -7 48508.4 2021.93   1
   3 -11   7 63674.2 2473.18   1
  11   3  -7 61193.3 1420.34   1
  -3 -11   7 65953.4 1815.89   1
  -3  11  -7 61613.4 2486.20   1
   1  11  -9 2640.92 448.766   1
  -1 -11   9 2218.62 402.882   1
  -1  11  -9 1276.94 350.815   1
   1 -11   9 1888.81 399.704   1
   3 -11   9 613.266 234.364   1
   3  11  -9 409.517 149.279   1
   3   9 -11 229.376 144.608   1
   1  11 -11 9156.86 940.161   1
   3  11 -11 36362.7 1648.37   1
  12   0   0 32802.3 1517.61   1
 -12   0   0 31550.1 1525.08   1
 -12   2   0 97.5991 64.4575   1
  12   0   2 5.18606 80.4237   1
 -12  -2   0 245.619 152.951   1
 -12   0  -2 28.2898 66.2414   1
 -12  -2  -2 1729.36 393.731   1
 -12  -2   2 1767.78 310.059   1
  12  -2  -2 1295.03 334.382   1
  12   2  -2 1941.61 303.385   1
 -12   2  -2 2016.58 453.992   1
  12  -2   2 1925.91 423.173   1
 -12  -4   0 57329.0 1798.02   1
 -12   0  -4 54381.1 2493.67   1
  12   0  -4 62017.1 2090.06   1
  12  -4   0 60417.4 2641.26   1
 -12   4   0 61764.7 2473.37   1
  12  -4   2 16499.0 1329.45   1
  12   2  -4 17871.0 872.352   1
 -12   2  -4 17265.7 1393.67   1
  12  -4  -2 19203.4 1510.24   1
 -12  -4   2 17886.2 865.435   1
  12  -2   4 16705.2 1322.88   1
 -12   4  -2 18624.9 1425.17   1
  12  -4   4 31999.4 1921.52   1
  12   2  -6 577.972 178.308   1
   2 -12   6 240.303 180.078   1
  -2 -12   6 322.211 129.503   1
  -4 -12   6 8953.80 653.135   1
   4 -12   6 9798.56 1105.25   1
   0 -12   8 15457.7 1127.82   1
   0  12  -8 15832.4 1160.58   1
   2 -12   8 38262.7 1947.04   1
  -2 -12   8 39827.4 1632.04   1
  -2  12  -8 35850.7 1922.69   1
   2 -12  10 320.947 207.915   1
   2  12 -10 119.127 56.4273   1
 -13   1  -1 46932.7 2093.53   1
 -13  -1  -1 49215.0 2063.65   1
  13  -1  -1 47826.0 1951.55   1
  13  -1   1 47188.7 2028.81   1
  13   1  -1 51722.9 1859.35   1
 -13   1   1 49076.5 2008.50   1
 -13  -1   1 48552.6 1842.08   1
  13  -1   3 19730.5 1451.21   1
  13  -3   1 17769.9 1352.38   1
 -13   1  -3 19206.2 1473.96   1
  13   1  -3 19868.7 1082.72   1
 -13  -3  -1 18450.0 1176.36   1
 -13  -1  -3 20617.9 1483.34   1
  13  -1  -3 20339.4 1328.11   1
  13  -3  -1 18806.4 1462.52   1
 -13   3  -1 19309.1 1404.87   1
 -13  -3   1 20504.2 1109.35   1
  13  -3   3 35236.1 2006.25   1
 -13  -5   1 48507.1 1588.01   1
  13  -5  -1 51018.8 2751.05   1
  13   1  -5 50233.6 1784.94   1
   3 -13   5 25022.5 1873.02   1
   1 -13   7 8831.92 948.637   1
  -1 -13   7 8138.60 814.456   1
  -3 -13   7 2278.12 383.113   1
   1 -13   9 27415.0 1641.33   1
  -1 -13   9 28332.8 1567.59   1
   1  13 -11 164.842 143.023   1
  14   0   0 53.2315 95.7328   1
 -14  -2   0 4858.73 601.198   1
 -14   0  -2 6489.15 856.543   1
  14   0   2 4935.30 773.041   1
  14  -2   0 5498.30 729.472   1
  14   0  -2 5868.93 684.501   1
 -14   2   0 5660.11 753.434   1
  14   2  -2 15152.4 999.739   1
 -14  -2  -2 13338.3 1134.13   1
  14  -2   2 15579.7 1309.48   1
  14  -2  -2 14272.9 1248.02   1
 -14  -4   0 75.2902 137.404   1
  14   0  -4 153.414 91.5776   1
  14  -4  -2 236.532 188.432   1
 -14   4  -2 4.03499 164.325   1
  14   2  -4 197.082 118.179   1
   0 -14   6 29338.7 1810.63   1
   2 -14   6 7396.73 1021.88   1
   0 -14   8 150.526 132.765   1
  -2 -14   8 6170.89 708.406   1
   0 -14  10 27032.4 1717.46   1
  15   1  -1 24177.8 1427.31   1
 -15  -1  -1 21027.3 1470.07   1
  15  -1  -1 21107.7 1442.14   1
  15  -1   1 23414.3 1604.75   1
 -15   1   1 20582.0 1426.39   1
 -15  -1   1 21318.3 1310.33   1
 -15   1  -1 22462.2 1572.45   1
  15  -1  -3 23186.5 1508.26   1
  15  -3  -1 23503.2 1723.01   1
 -15  -3  -1 22717.5 1454.12   1
  15   1  -3 24775.5 1342.32   1
 -15  -3   1 25649.6 1358.28   1
 -16   0   0 12267.2 1119.75   1
  16   0   0 13017.3 1161.83   1
 -16  -2   0 141.361 130.264   1
  16  -2  -2 72.6046 135.739   1
 -16  -2  -2 10.3344 122.302   1
  17  -1  -1 27249.1 1797.56   1
 -17  -1   1 25139.8 1533.97   1
  17  -1  -3 14325.4 1270.13   1
   0   0   0    0.00    0.00   0
TITL marseno_029 in Fd-3m
REM Fd-3m (#227 in standard setting)
CELL 0.41427  10.352527  10.352527  10.352527  90.0000  90.0000  90.0000
ZERR    8.00   0.000315   0.000315   0.000315   0.0000   0.0000   0.0000
LATT  4
SYMM -x+3/4,-y+1/4, z+1/2
SYMM -x+1/4, y+1/2,-z+3/4
SYMM  x+1/2,-y+3/4,-z+1/4
SYMM  z, x, y
SYMM  z+1/2,-x+3/4,-y+1/4
SYMM -z+3/4,-x+1/4, y+1/2
SYMM -z+1/4, x+1/2,-y+3/4
SYMM  y, z, x
SYMM -y+1/4, z+1/2,-x+3/4
SYMM  y+1/2,-z+3/4,-x+1/4
SYMM -y+3/4,-z+1/4, x+1/2
SYMM  y+3/4, x+1/4,-z+1/2
SYMM -y,-x,-z
SYMM  y+1/4,-x+1/2, z+3/4
SYMM -y+1/2, x+3/4, z+1/4
SYMM  x+3/4, z+1/4,-y+1/2
SYMM -x+1/2, z+3/4, y+1/4
SYMM -x,-z,-y
SYMM  x+1/4,-z+1/2, y+3/4
SYMM  z+3/4, y+1/4,-x+1/2
SYMM  z+1/4,-y+1/2, x+3/4
SYMM -z+1/2, y+3/4, x+1/4
SYMM -z,-y,-x
SFAC O As
UNIT 48.00 32.00
TREF
HKLF 4
END
;
_shelx_hkl_checksum              99517
_shelx_shelxl_version_number     2014/7
loop_
_space_group_symop_operation_xyz
'x, y, z'
'-x+3/4, -y+1/4, z+1/2'
'-x+1/4, y+1/2, -z+3/4'
'x+1/2, -y+3/4, -z+1/4'
'z, x, y'
'z+1/2, -x+3/4, -y+1/4'
'-z+3/4, -x+1/4, y+1/2'
'-z+1/4, x+1/2, -y+3/4'
'y, z, x'
'-y+1/4, z+1/2, -x+3/4'
'y+1/2, -z+3/4, -x+1/4'
'-y+3/4, -z+1/4, x+1/2'
'y+3/4, x+1/4, -z+1/2'
'-y, -x, -z'
'y+1/4, -x+1/2, z+3/4'
'-y+1/2, x+3/4, z+1/4'
'x+3/4, z+1/4, -y+1/2'
'-x+1/2, z+3/4, y+1/4'
'-x, -z, -y'
'x+1/4, -z+1/2, y+3/4'
'z+3/4, y+1/4, -x+1/2'
'z+1/4, -y+1/2, x+3/4'
'-z+1/2, y+3/4, x+1/4'
'-z, -y, -x'
'x, y+1/2, z+1/2'
'-x+3/4, -y+3/4, z+1'
'-x+1/4, y+1, -z+5/4'
'x+1/2, -y+5/4, -z+3/4'
'z, x+1/2, y+1/2'
'z+1/2, -x+5/4, -y+3/4'
'-z+3/4, -x+3/4, y+1'
'-z+1/4, x+1, -y+5/4'
'y, z+1/2, x+1/2'
'-y+1/4, z+1, -x+5/4'
'y+1/2, -z+5/4, -x+3/4'
'-y+3/4, -z+3/4, x+1'
'y+3/4, x+3/4, -z+1'
'-y, -x+1/2, -z+1/2'
'y+1/4, -x+1, z+5/4'
'-y+1/2, x+5/4, z+3/4'
'x+3/4, z+3/4, -y+1'
'-x+1/2, z+5/4, y+3/4'
'-x, -z+1/2, -y+1/2'
'x+1/4, -z+1, y+5/4'
'z+3/4, y+3/4, -x+1'
'z+1/4, -y+1, x+5/4'
'-z+1/2, y+5/4, x+3/4'
'-z, -y+1/2, -x+1/2'
'x+1/2, y, z+1/2'
'-x+5/4, -y+1/4, z+1'
'-x+3/4, y+1/2, -z+5/4'
'x+1, -y+3/4, -z+3/4'
'z+1/2, x, y+1/2'
'z+1, -x+3/4, -y+3/4'
'-z+5/4, -x+1/4, y+1'
'-z+3/4, x+1/2, -y+5/4'
'y+1/2, z, x+1/2'
'-y+3/4, z+1/2, -x+5/4'
'y+1, -z+3/4, -x+3/4'
'-y+5/4, -z+1/4, x+1'
'y+5/4, x+1/4, -z+1'
'-y+1/2, -x, -z+1/2'
'y+3/4, -x+1/2, z+5/4'
'-y+1, x+3/4, z+3/4'
'x+5/4, z+1/4, -y+1'
'-x+1, z+3/4, y+3/4'
'-x+1/2, -z, -y+1/2'
'x+3/4, -z+1/2, y+5/4'
'z+5/4, y+1/4, -x+1'
'z+3/4, -y+1/2, x+5/4'
'-z+1, y+3/4, x+3/4'
'-z+1/2, -y, -x+1/2'
'x+1/2, y+1/2, z'
'-x+5/4, -y+3/4, z+1/2'
'-x+3/4, y+1, -z+3/4'
'x+1, -y+5/4, -z+1/4'
'z+1/2, x+1/2, y'
'z+1, -x+5/4, -y+1/4'
'-z+5/4, -x+3/4, y+1/2'
'-z+3/4, x+1, -y+3/4'
'y+1/2, z+1/2, x'
'-y+3/4, z+1, -x+3/4'
'y+1, -z+5/4, -x+1/4'
'-y+5/4, -z+3/4, x+1/2'
'y+5/4, x+3/4, -z+1/2'
'-y+1/2, -x+1/2, -z'
'y+3/4, -x+1, z+3/4'
'-y+1, x+5/4, z+1/4'
'x+5/4, z+3/4, -y+1/2'
'-x+1, z+5/4, y+1/4'
'-x+1/2, -z+1/2, -y'
'x+3/4, -z+1, y+3/4'
'z+5/4, y+3/4, -x+1/2'
'z+3/4, -y+1, x+3/4'
'-z+1, y+5/4, x+1/4'
'-z+1/2, -y+1/2, -x'
'-x, -y, -z'
'x-3/4, y-1/4, -z-1/2'
'x-1/4, -y-1/2, z-3/4'
'-x-1/2, y-3/4, z-1/4'
'-z, -x, -y'
'-z-1/2, x-3/4, y-1/4'
'z-3/4, x-1/4, -y-1/2'
'z-1/4, -x-1/2, y-3/4'
'-y, -z, -x'
'y-1/4, -z-1/2, x-3/4'
'-y-1/2, z-3/4, x-1/4'
'y-3/4, z-1/4, -x-1/2'
'-y-3/4, -x-1/4, z-1/2'
'y, x, z'
'-y-1/4, x-1/2, -z-3/4'
'y-1/2, -x-3/4, -z-1/4'
'-x-3/4, -z-1/4, y-1/2'
'x-1/2, -z-3/4, -y-1/4'
'x, z, y'
'-x-1/4, z-1/2, -y-3/4'
'-z-3/4, -y-1/4, x-1/2'
'-z-1/4, y-1/2, -x-3/4'
'z-1/2, -y-3/4, -x-1/4'
'z, y, x'
'-x, -y+1/2, -z+1/2'
'x-3/4, y+1/4, -z'
'x-1/4, -y, z-1/4'
'-x-1/2, y-1/4, z+1/4'
'-z, -x+1/2, -y+1/2'
'-z-1/2, x-1/4, y+1/4'
'z-3/4, x+1/4, -y'
'z-1/4, -x, y-1/4'
'-y, -z+1/2, -x+1/2'
'y-1/4, -z, x-1/4'
'-y-1/2, z-1/4, x+1/4'
'y-3/4, z+1/4, -x'
'-y-3/4, -x+1/4, z'
'y, x+1/2, z+1/2'
'-y-1/4, x, -z-1/4'
'y-1/2, -x-1/4, -z+1/4'
'-x-3/4, -z+1/4, y'
'x-1/2, -z-1/4, -y+1/4'
'x, z+1/2, y+1/2'
'-x-1/4, z, -y-1/4'
'-z-3/4, -y+1/4, x'
'-z-1/4, y, -x-1/4'
'z-1/2, -y-1/4, -x+1/4'
'z, y+1/2, x+1/2'
'-x+1/2, -y, -z+1/2'
'x-1/4, y-1/4, -z'
'x+1/4, -y-1/2, z-1/4'
'-x, y-3/4, z+1/4'
'-z+1/2, -x, -y+1/2'
'-z, x-3/4, y+1/4'
'z-1/4, x-1/4, -y'
'z+1/4, -x-1/2, y-1/4'
'-y+1/2, -z, -x+1/2'
'y+1/4, -z-1/2, x-1/4'
'-y, z-3/4, x+1/4'
'y-1/4, z-1/4, -x'
'-y-1/4, -x-1/4, z'
'y+1/2, x, z+1/2'
'-y+1/4, x-1/2, -z-1/4'
'y, -x-3/4, -z+1/4'
'-x-1/4, -z-1/4, y'
'x, -z-3/4, -y+1/4'
'x+1/2, z, y+1/2'
'-x+1/4, z-1/2, -y-1/4'
'-z-1/4, -y-1/4, x'
'-z+1/4, y-1/2, -x-1/4'
'z, -y-3/4, -x+1/4'
'z+1/2, y, x+1/2'
'-x+1/2, -y+1/2, -z'
'x-1/4, y+1/4, -z-1/2'
'x+1/4, -y, z-3/4'
'-x, y-1/4, z-1/4'
'-z+1/2, -x+1/2, -y'
'-z, x-1/4, y-1/4'
'z-1/4, x+1/4, -y-1/2'
'z+1/4, -x, y-3/4'
'-y+1/2, -z+1/2, -x'
'y+1/4, -z, x-3/4'
'-y, z-1/4, x-1/4'
'y-1/4, z+1/4, -x-1/2'
'-y-1/4, -x+1/4, z-1/2'
'y+1/2, x+1/2, z'
'-y+1/4, x, -z-3/4'
'y, -x-1/4, -z-1/4'
'-x-1/4, -z+1/4, y-1/2'
'x, -z-1/4, -y-1/4'
'x+1/2, z+1/2, y'
'-x+1/4, z, -y-3/4'
'-z-1/4, -y+1/4, x-1/2'
'-z+1/4, y, -x-3/4'
'z, -y-1/4, -x-1/4'
'z+1/2, y+1/2, x'
loop_
_atom_site_label
_atom_site_type_symbol
_atom_site_fract_x
_atom_site_fract_y
_atom_site_fract_z
_atom_site_U_iso_or_equiv
_atom_site_adp_type
_atom_site_occupancy
_atom_site_site_symmetry_order
_atom_site_calc_flag
_atom_site_refinement_flags_posn
_atom_site_refinement_flags_adp
_atom_site_refinement_flags_occupancy
As1 As 0.26401(4) 0.26401(4) 0.26401(4) 0.0122(3) Uani 1 6 d S T P
O1 O 0.3750 0.3750 0.1903(3) 0.0129(7) Uani 1 4 d S T P
loop_
_atom_site_aniso_label
_atom_site_aniso_U_11
_atom_site_aniso_U_22
_atom_site_aniso_U_33
_atom_site_aniso_U_23
_atom_site_aniso_U_13
_atom_site_aniso_U_12
As1 0.0122(3) 0.0122(3) 0.0122(3) -0.00046(13) -0.00046(13) -0.00046(13)
O1 0.0134(10) 0.0134(10) 0.0119(16) 0.000 0.000 -0.0009(14)
loop_
_atom_type_symbol
_atom_type_description
_atom_type_scat_dispersion_real
_atom_type_scat_dispersion_imag
_atom_type_scat_source
O O 0.0020 0.0020 'International Tables Vol C Tables 4.2.6.8 and 6.1.1.4'
As As 0.3110 0.7990 'International Tables Vol C Tables 4.2.6.8 and 6.1.1.4'
loop_
_geom_angle_atom_site_label_1
_geom_angle_atom_site_label_2
_geom_angle_atom_site_label_3
_geom_angle
_geom_angle_site_symmetry_1
_geom_angle_site_symmetry_3
O1 As1 O1 97.74(14) . 9
O1 As1 O1 97.74(14) 9 5
O1 As1 O1 97.74(14) . 5
As1 O1 As1 129.7(2) . 26_554
loop_
_geom_bond_atom_site_label_1
_geom_bond_atom_site_label_2
_geom_bond_distance
_geom_bond_site_symmetry_2
As1 O1 1.7953(16) .
As1 O1 1.7953(16) 5
As1 O1 1.7953(16) 9
O1 As1 1.7954(16) 26_554
