#------------------------------------------------------------------------------
#$Date: 2015-09-04 08:12:49 +0300 (Fri, 04 Sep 2015) $
#$Revision: 153928 $
#$URL: svn://www.crystallography.net/cod/cif/4/51/35/4513567.cif $
#------------------------------------------------------------------------------
#
# This file is available in the Crystallography Open Database (COD),
# http://www.crystallography.net/
#
# All data on this site have been placed in the public domain by the
# contributors.
#
data_4513567
loop_
_publ_author_name
'Gu\'nka, Piotr A.'
'Dziubek, Kamil F.'
'G\/ladysiak, Andrzej'
'Dranka, Maciej'
'Piechota, Jacek'
'Hanfland, Michael'
'Katrusiak, Andrzej'
'Zachara, Janusz'
_publ_section_title
;
 Compressed Arsenolite As4O6and Its Helium Clathrate As4O6&#x00B7;2He
;
_journal_issue                   8
_journal_name_full               'Crystal Growth &amp; Design'
_journal_page_first              3740
_journal_paper_doi               10.1021/acs.cgd.5b00390
_journal_volume                  15
_journal_year                    2015
_chemical_formula_moiety         'As4 O6'
_chemical_formula_sum            'As4 O6'
_chemical_formula_weight         395.68
_chemical_name_common            arsenolite
_space_group_crystal_system      cubic
_space_group_IT_number           227
_space_group_name_Hall           '-F 4vw 2vw 3'
_space_group_name_H-M_alt        'F d -3 m'
_symmetry_space_group_name_Hall  '-F 4vw 2vw 3'
_symmetry_space_group_name_H-M   'F d -3 m :2'
_atom_sites_solution_primary     direct
_audit_creation_date             2014-10-14
_audit_creation_method
;
Olex2 1.2-beta
(compiled 2014.09.19 svn.r3010 for OlexSys, GUI svn.r4874)
;
_cell_angle_alpha                90
_cell_angle_beta                 90
_cell_angle_gamma                90
_cell_formula_units_Z            8
_cell_length_a                   11.01439(13)
_cell_length_b                   11.01439(13)
_cell_length_c                   11.01439(13)
_cell_measurement_pressure       7e4(5)
_cell_measurement_reflns_used    369
_cell_measurement_temperature    293(2)
_cell_measurement_theta_max      19.2360
_cell_measurement_theta_min      2.1600
_cell_volume                     1336.23(3)
_computing_cell_refinement
;
CrysAlisPro, Agilent Technologies,
Version 1.171.37.34 (release 22-05-2014 CrysAlis171 .NET)
(compiled May 22 2014,16:03:01)
;
_computing_data_collection
;
CrysAlisPro, Agilent Technologies,
Version 1.171.37.34 (release 22-05-2014 CrysAlis171 .NET)
(compiled May 22 2014,16:03:01)
;
_computing_data_reduction
;
CrysAlisPro, Agilent Technologies,
Version 1.171.37.34 (release 22-05-2014 CrysAlis171 .NET)
(compiled May 22 2014,16:03:01)
;
_computing_molecular_graphics    'Olex2 (Dolomanov et al., 2009)'
_computing_publication_material  'Olex2 (Dolomanov et al., 2009)'
_computing_structure_refinement  'ShelXL (Sheldrick, 2008)'
_computing_structure_solution    'ShelXT (Sheldrick, 2008)'
_diffrn_ambient_environment      He
_diffrn_ambient_pressure         7e4(5)
_diffrn_ambient_temperature      293(2)
_diffrn_detector                 'CCD plate'
_diffrn_measured_fraction_theta_full 0.924
_diffrn_measured_fraction_theta_max 0.709
_diffrn_measurement_details
;
  1 phi    148.00  212.00   0.5000    1.0000
omega____ theta____ kappa____ phi______ frames
   0.0000    0.0000    0.0000     -     128
;
_diffrn_measurement_device       'abstract diffractometer'
_diffrn_measurement_device_type
'MAR-CrysAlisPro-abstract goniometer: imported MAR images'
_diffrn_measurement_method       '\p scans'
_diffrn_orient_matrix_UB_11      -0.0220030000
_diffrn_orient_matrix_UB_12      -0.0304906000
_diffrn_orient_matrix_UB_13      0.0009783000
_diffrn_orient_matrix_UB_21      0.0208484000
_diffrn_orient_matrix_UB_22      -0.0141428000
_diffrn_orient_matrix_UB_23      0.0279224000
_diffrn_orient_matrix_UB_31      -0.0222562000
_diffrn_orient_matrix_UB_32      0.0168888000
_diffrn_orient_matrix_UB_33      0.0251844000
_diffrn_radiation_monochromator  synchrotron
_diffrn_radiation_probe          x-ray
_diffrn_radiation_wavelength     0.41427
_diffrn_reflns_av_R_equivalents  0.0356
_diffrn_reflns_av_unetI/netI     0.0216
_diffrn_reflns_laue_measured_fraction_full 0.924
_diffrn_reflns_laue_measured_fraction_max 0.709
_diffrn_reflns_limit_h_max       16
_diffrn_reflns_limit_h_min       -14
_diffrn_reflns_limit_k_max       12
_diffrn_reflns_limit_k_min       -10
_diffrn_reflns_limit_l_max       18
_diffrn_reflns_limit_l_min       -18
_diffrn_reflns_number            647
_diffrn_reflns_point_group_measured_fraction_full 0.924
_diffrn_reflns_point_group_measured_fraction_max 0.709
_diffrn_reflns_theta_full        14.392
_diffrn_reflns_theta_max         19.913
_diffrn_reflns_theta_min         3.049
_diffrn_source                   synchrotron
_exptl_absorpt_coefficient_mu    4.545
_exptl_absorpt_correction_T_max  1.00000
_exptl_absorpt_correction_T_min  0.69893
_exptl_absorpt_correction_type   multi-scan
_exptl_absorpt_process_details
;
CrysAlisPro, Agilent Technologies,
Version 1.171.37.34 (release 22-05-2014 CrysAlis171 .NET)
(compiled May 22 2014,16:03:01)
Empirical absorption correction using spherical harmonics,
 implemented in SCALE3 ABSPACK scaling algorithm.
;
_exptl_crystal_density_diffrn    3.934
_exptl_crystal_description       block
_exptl_crystal_F_000             1440
_exptl_crystal_size_max          0.065
_exptl_crystal_size_mid          0.04
_exptl_crystal_size_min          0.02
_refine_diff_density_max         0.601
_refine_diff_density_min         -0.659
_refine_diff_density_rms         0.162
_refine_ls_extinction_coef       0.013(2)
_refine_ls_extinction_expression Fc^*^=kFc[1+0.001xFc^2^\l^3^/sin(2\q)]^-1/4^
_refine_ls_extinction_method     'SHELXL-2014/7 (Sheldrick 2014'
_refine_ls_goodness_of_fit_ref   1.402
_refine_ls_hydrogen_treatment    undef
_refine_ls_matrix_type           full
_refine_ls_number_parameters     9
_refine_ls_number_reflns         129
_refine_ls_number_restraints     0
_refine_ls_restrained_S_all      1.402
_refine_ls_R_factor_all          0.0253
_refine_ls_R_factor_gt           0.0247
_refine_ls_shift/su_max          0.001
_refine_ls_shift/su_mean         0.000
_refine_ls_structure_factor_coef Fsqd
_refine_ls_weighting_details
'w=1/[\s^2^(Fo^2^)+(0.0330P)^2^+0.8990P] where P=(Fo^2^+2Fc^2^)/3'
_refine_ls_weighting_scheme      calc
_refine_ls_wR_factor_gt          0.0623
_refine_ls_wR_factor_ref         0.0631
_reflns_Friedel_coverage         0.000
_reflns_number_gt                124
_reflns_number_total             129
_reflns_threshold_expression     'I > 2\s(I)'
_cod_data_source_file            cg5b00390_si_002.cif
_cod_data_source_block           marseno_007
_cod_original_cell_volume        1336.23(5)
_cod_database_code               4513567
_shelx_space_group_comment
;
The symmetry employed for this shelxl refinement is uniquely defined
by the following loop, which should always be used as a source of
symmetry information in preference to the above space-group names.
They are only intended as comments.
;
_olex2_refinement_description
;
;
_shelx_res_file
;
    marseno_007.res created by SHELXL-2014/7

TITL marseno_007_a.res in Fd-3m
CELL 0.41427 11.014393 11.014393 11.014393 90 90 90
ZERR 8 0.000127 0.000127 0.000127 0 0 0
LATT 4
SYMM 0.75-X,0.25-Y,0.5+Z
SYMM 0.25-X,0.5+Y,0.75-Z
SYMM 0.5+X,0.75-Y,0.25-Z
SYMM +Z,+X,+Y
SYMM 0.5+Z,0.75-X,0.25-Y
SYMM 0.75-Z,0.25-X,0.5+Y
SYMM 0.25-Z,0.5+X,0.75-Y
SYMM +Y,+Z,+X
SYMM 0.25-Y,0.5+Z,0.75-X
SYMM 0.5+Y,0.75-Z,0.25-X
SYMM 0.75-Y,0.25-Z,0.5+X
SYMM 0.75+Y,0.25+X,0.5-Z
SYMM -Y,-X,-Z
SYMM 0.25+Y,0.5-X,0.75+Z
SYMM 0.5-Y,0.75+X,0.25+Z
SYMM 0.75+X,0.25+Z,0.5-Y
SYMM 0.5-X,0.75+Z,0.25+Y
SYMM -X,-Z,-Y
SYMM 0.25+X,0.5-Z,0.75+Y
SYMM 0.75+Z,0.25+Y,0.5-X
SYMM 0.25+Z,0.5-Y,0.75+X
SYMM 0.5-Z,0.75+Y,0.25+X
SYMM -Z,-Y,-X

SFAC O As
DISP As 0.311 0.799 1882.762
DISP O 0.002 0.002 10.067
UNIT 48 32

L.S. 10
PLAN  20
REM Old TITL marseno_007 in Fd-3m #227
BOND $H
LIST 6
fmap 2
ACTA
OMIT 2 2 2
OMIT 1 1 1
OMIT 4 4 4
REM <HKL>E:/X-Ray_Data_Backup/ESRF_id09_2014_10/data/arsenolite/arseno_007/str
REM uct/olex2_marseno_007/marseno_007.hkl</HKL>

WGHT    0.033000    0.899000
EXTI    0.013109
FVAR       1.46389
AS1   2    0.271493    0.271493    0.271493    10.16667    0.01649    0.01649 =
         0.01649   -0.00157   -0.00157   -0.00157
O1    1    0.375000    0.375000    0.200404    10.25000    0.01959    0.01959 =
         0.01455    0.00000    0.00000   -0.00141
HKLF 4

REM  marseno_007_a.res in Fd-3m
REM R1 =  0.0247 for     124 Fo > 4sig(Fo)  and  0.0253 for all     129 data
REM      9 parameters refined using      0 restraints

END

WGHT      0.0331      0.8986

REM Highest difference peak  0.601,  deepest hole -0.659,  1-sigma level  0.162
Q1    1   0.2051  0.2756  0.2756  10.50000  0.05    0.60
Q2    1   0.3028  0.1793  0.3028  10.50000  0.05    0.44
Q3    1   0.4392  0.3875  0.2256  11.00000  0.05    0.44
Q4    1   0.4258  0.4258  0.1740  10.50000  0.05    0.43
Q5    1   0.2273  0.2713  0.1713  11.00000  0.05    0.42
Q6    1   0.3866  0.4285  0.2410  11.00000  0.05    0.40
Q7    1   0.2364  0.1806  0.1806  10.50000  0.05    0.39
Q8    1   0.5000  0.4724  0.0276  10.50000  0.05    0.37
Q9    1   0.3644  0.4657  0.1968  11.00000  0.05    0.34
Q10   1   0.2133  0.2133  0.2133  10.16667  0.05    0.32
Q11   1   0.3564  0.2766  0.2766  10.50000  0.05    0.32
Q12   1   0.4373  0.3489  0.2246  11.00000  0.05    0.31
Q13   1   0.3125  0.3593  0.1681  11.00000  0.05    0.29
Q14   1   0.4861  0.3090  0.2020  11.00000  0.05    0.27
Q15   1   0.1577  0.1577  0.0923  10.16667  0.05    0.26
Q16   1   0.3976  0.3524  0.1037  10.50000  0.05    0.23
Q17   1   0.3151  0.4349  0.1893  10.50000  0.05    0.22
Q18   1   0.4358  0.4358 -0.0025  10.50000  0.05    0.21
Q19   1   0.3750  0.3750  0.1651  10.25000  0.05    0.20
Q20   1   0.2396  0.2396  0.1070  10.50000  0.05    0.13
;
_shelx_res_checksum              76643
_shelx_hkl_file
;
  -1   1  -1 189680. 1237.80   1
   1  -1   1 168491. 1141.79   1
   0   0  -2 2.38484 5.07754   1
  -2   2   0 4285.11 196.186   1
  -2   0  -2 4392.86 244.041   1
   2  -2   0 4504.06 199.478   1
  -2   2   2 162380. 584.521   1
  -1   1  -3 7388.31 347.431   1
   1  -1   3 7535.81 336.011   1
   3  -1   1 7436.56 333.512   1
   1  -1  -3 7162.19 219.396   1
  -3   1  -1 7243.76 322.924   1
   1   1   3 6610.21 306.629   1
   1  -3   3 217326. 2098.89   1
  -3   1  -3 185299. 2076.66   1
  -3   3   1 198761. 1413.28   1
  -3   3  -1 211285. 1934.63   1
   3  -1   3 189612. 2142.67   1
  -1   3  -3 181205. 1944.53   1
   3  -3   3 85486.5 1419.90   1
  -3   3  -3 91408.0 1595.92   1
   2   0   4 32.5579 38.5202   1
  -4   2   0 4.73766 6.37952   1
  -2   0  -4 19.4575 25.9372   1
   2   0  -4 22.5656 22.4154   1
   0  -2   4 16.1008 19.1536   1
  -4   2  -2 57103.7 1186.46   1
  -2   2  -4 59602.0 1227.54   1
   4  -2  -2 54975.5 704.930   1
   2  -2   4 59253.0 1154.77   1
   4  -2   2 61143.3 1197.19   1
  -2   2   4 55994.4 556.335   1
  -2   4  -2 62528.7 1169.54   1
  -4   2  -4 63633.1 1455.94   1
   4  -2   4 67893.9 1497.93   1
  -4   4  -2 65167.0 1337.14   1
   4  -4   2 66608.3 1288.10   1
   2  -4   4 61403.5 1313.71   1
  -2   4  -4 65988.1 1382.58   1
  -4   4   4 237815. 925.107   1
   1   1   5 85011.5 1407.48   1
  -1  -1  -5 86526.8 1324.56   1
   1  -1   5 87197.9 1412.46   1
  -1  -1   5 86938.7 1258.07   1
  -1   1   5 91739.7 1088.93   1
   1  -1  -5 88320.4 1163.93   1
   1   1  -5 88293.9 1269.15   1
  -1   1  -5 84338.2 1461.65   1
   5  -1   1 94247.8 1402.23   1
  -3   1  -5 32509.9 1027.25   1
   5  -3  -1 35650.9 797.929   1
  -5   1  -3 32351.5 965.767   1
  -5   3  -1 31205.0 902.810   1
   5  -3   1 33859.6 936.914   1
   3  -1  -5 32632.0 545.754   1
  -5   3   1 30822.8 685.966   1
   3  -1   5 34447.0 1048.73   1
   1  -3   5 30137.3 900.211   1
  -1   3  -5 28944.7 904.068   1
   5  -1   3 30986.1 978.945   1
   5  -3  -3 10891.7 292.261   1
  -3   3  -5 10479.4 594.285   1
  -5   3  -3 11206.4 629.923   1
  -3   5  -3 11562.6 589.954   1
   3  -3   5 9158.83 541.353   1
   5  -3   3 9402.63 559.867   1
   3  -5   3 9504.56 532.027   1
  -3   3   5 10138.9 182.510   1
  -5   1  -5 267448. 3158.59   1
   5  -3   5 41686.0 1304.81   1
   3  -5   5 42323.7 1259.08   1
   5  -5   3 38807.9 1129.46   1
  -5   3  -5 40136.9 1344.62   1
  -5   5   3 42554.4 749.581   1
   5  -5   5 163951. 2642.51   1
  -5   5  -5 201990. 3076.38   1
   6  -2   0 3247.76 271.646   1
   0   2   6 4289.94 312.349   1
   2   0   6 3947.94 341.761   1
  -2   0  -6 4126.16 336.410   1
   0   2  -6 3557.03 317.113   1
   2   0  -6 3314.90 245.139   1
   0  -2   6 2947.79 279.360   1
  -4   6   0 186.175 72.3383   1
  -4   0  -6 3.21034 7.56507   1
  -6   2  -4 22681.6 923.759   1
   6  -4   2 21787.3 847.566   1
  -6   4  -2 23608.2 933.194   1
   4  -2  -6 22702.7 415.321   1
   4  -2   6 21071.4 932.735   1
   2  -4   6 20535.7 875.656   1
  -4   2  -6 22725.1 981.650   1
  -6   4   2 22902.8 617.476   1
   6  -2   4 20278.8 910.484   1
   6  -4  -2 22683.1 593.348   1
  -2   4  -6 18508.4 848.316   1
  -4   6  -4 22583.7 963.961   1
  -6   4  -4 23196.9 1027.72   1
   4  -4   6 21260.9 947.585   1
   4  -6   4 22280.6 922.746   1
  -4   4  -6 21851.0 1008.30   1
   6  -4   4 21870.1 932.194   1
  -6   6   0 257193. 2805.28   1
   6  -2   6 115013. 2347.89   1
  -6   6  -2 114397. 2099.62   1
  -6   6   2 116658. 1630.43   1
  -6   2  -6 113612. 2319.35   1
   6  -6   2 110721. 1883.91   1
   4  -6   6 60365.0 1676.82   1
  -6   6  -4 50844.3 1574.61   1
   6  -4   6 52199.3 1620.97   1
   6  -6   4 55733.7 1490.94   1
  -6   4  -6 58615.5 1820.33   1
  -6   6   4 54459.8 879.638   1
  -4   6  -6 55161.2 1671.82   1
   6  -6   6 36150.3 1334.03   1
  -6   6  -6 33554.3 1411.32   1
   1   1   7 57358.5 1307.36   1
   1   1  -7 56610.4 1240.88   1
  -1  -1  -7 59400.0 1307.95   1
   1  -1   7 55570.3 1284.16   1
  -1  -1   7 58298.8 1193.14   1
  -1   1   7 56380.3 1065.76   1
   1  -1  -7 57899.1 1194.22   1
  -1   3  -7 118652. 2101.13   1
   7  -3  -1 123161. 1740.83   1
  -7   3  -1 129287. 1970.54   1
   3  -1   7 137037. 2418.28   1
   3   1   7 128396. 2336.17   1
   1  -3   7 99003.1 1892.29   1
  -3   1  -7 123493. 2272.82   1
   3  -1  -7 108952. 1384.62   1
   7  -3   1 119428. 1988.67   1
  -3  -1  -7 121827. 2072.28   1
  -1   3   7 112817. 1631.08   1
  -3   3  -7 280516. 3480.26   1
  -7   3  -3 275370. 3364.87   1
  -7   5   1 22544.4 775.382   1
   7  -1   5 19640.3 1008.96   1
  -5   7   1 21895.3 772.279   1
   5  -1   7 21779.6 1051.55   1
  -5   7  -1 23325.8 890.313   1
   7  -5  -1 24070.1 755.358   1
  -7   1  -5 20480.1 958.814   1
  -5   1  -7 22630.6 1032.57   1
   5  -1  -7 23745.4 546.800   1
  -7   5  -1 23537.3 943.744   1
   7  -5   1 22956.1 862.076   1
   5  -7   3 7823.42 558.377   1
   7  -3  -5 8364.33 280.955   1
  -7   3  -5 7763.93 609.753   1
   7  -3   5 8463.75 657.645   1
   5  -3   7 8470.90 639.688   1
  -7   5   3 8693.77 378.101   1
   7  -5  -3 8516.06 350.382   1
  -3   5  -7 8103.44 641.063   1
  -7   5  -3 7760.92 626.861   1
  -5   7  -3 7861.82 583.337   1
  -5   3  -7 9062.25 703.937   1
   7  -5   3 8263.52 566.672   1
   7  -5   5 530.047 169.281   1
   5  -5   7 152.432 80.7244   1
  -7   5  -5 507.882 166.196   1
   5  -7   5 302.222 130.153   1
  -5   7  -5 300.520 127.155   1
  -5   5  -7 35.5621 64.4689   1
   7  -1   7 59283.4 1972.08   1
  -7   1  -7 60400.1 1802.47   1
  -7   7   1 63117.0 1400.37   1
  -7   7  -1 63767.0 1626.97   1
   7  -7   1 63206.9 1483.56   1
   7  -7   3 143194. 2409.92   1
  -7   3  -7 139612. 2867.04   1
   7  -3   7 142533. 2959.93   1
  -7   7  -3 138764. 2588.75   1
  -7   7  -5 4791.36 526.386   1
   5  -7   7 4990.20 542.371   1
   7  -7   5 4426.84 478.561   1
  -5   7  -7 4018.08 535.130   1
  -7   5  -7 4765.59 573.317   1
   7  -5   7 4809.15 520.821   1
  -7   7   5 4665.71 236.412   1
   7  -7   7 100050. 2434.09   1
  -7   7  -7 109008. 2822.90   1
   0   0  -8 190877. 2675.37   1
   0   0   8 191152. 2344.73   1
   0  -2  -8 37.3435 36.3528   1
  -2   0  -8 19.0381 19.9801   1
   0   2   8 1.34177 12.6474   1
   2   0   8 1.86308 41.1846   1
   2   2  -8 7404.86 499.410   1
   2  -2  -8 7881.83 410.211   1
  -2   2  -8 8358.46 596.848   1
   2  -2   8 7644.13 546.429   1
  -2   2   8 7669.19 374.798   1
   8  -2   2 7594.53 561.659   1
   2   2   8 8730.68 599.461   1
   4   0  -8 93910.4 1400.15   1
   4   0   8 87991.1 2107.95   1
  -4   0  -8 93466.2 2072.25   1
  -8   4   0 88270.5 1671.59   1
   8  -4   0 93053.9 1796.39   1
   2  -4   8 103207. 2198.12   1
   8  -4  -2 99085.9 1595.93   1
   8  -4   2 98047.9 2038.61   1
   4  -2   8 103336. 2243.41   1
  -8   2  -4 97956.2 2093.42   1
  -2   4  -8 105421. 2304.85   1
  -8   4  -2 99547.2 2031.89   1
   4  -2  -8 91416.5 1232.60   1
  -4   2  -8 95492.7 2267.08   1
  -2   4   8 99724.6 1409.41   1
   8  -2   4 92325.6 2234.96   1
  -4   4  -8 24192.6 1182.44   1
   4  -4   8 25885.0 1140.42   1
   8  -4   4 23268.3 1107.36   1
   8  -4  -4 25655.7 621.493   1
  -8   4  -4 24253.6 1101.43   1
  -6   8   0 1.61810 15.2520   1
   8  -6   2 6474.71 505.469   1
   6  -2   8 4985.06 569.957   1
   6  -2  -8 6508.93 266.200   1
   8  -6  -2 6036.91 360.328   1
  -8   2  -6 6448.17 607.179   1
  -6   8  -2 6609.63 557.463   1
  -8   6   2 6834.82 424.616   1
  -6   8   2 6430.56 415.603   1
  -6   2  -8 7307.96 637.856   1
   8  -2   6 6749.16 631.983   1
  -8   6  -2 6582.48 575.543   1
  -4   6   8 36469.5 596.914   1
   6  -8   4 37063.4 1355.05   1
   8  -4   6 34480.2 1438.10   1
  -6   8  -4 36852.5 1436.35   1
  -8   4  -6 36546.2 1476.08   1
   8  -6   4 37029.2 1367.69   1
   6  -4   8 33314.7 1386.42   1
  -6   8   4 35822.3 826.243   1
  -8   6  -4 39062.5 1516.56   1
   4  -6   8 33551.2 1404.79   1
  -6   6  -8 31901.0 1532.77   1
   6  -6   8 31313.7 1361.95   1
  -6   8  -6 31919.5 1516.67   1
  -6   8   6 29228.5 580.137   1
  -8   6  -6 33010.2 1512.69   1
   6  -8   6 30610.6 1348.70   1
   8  -6   6 30278.7 1364.60   1
  -8   8   0 6912.46 538.848   1
  -8   8  -2 163120. 2900.57   1
   8  -2   8 164418. 3456.26   1
  -8   2  -8 159051. 3198.97   1
   8  -8   2 170053. 2764.05   1
  -8   8   4 21409.9 726.695   1
  -8   4  -8 19687.5 1192.05   1
   8  -8   4 22583.3 1138.25   1
   8  -4   8 20935.3 1208.61   1
  -8   8  -4 19810.4 1116.70   1
  -8   8  -6 60433.5 2127.61   1
   8  -6   8 57623.2 2048.48   1
  -6   8  -8 63265.1 2342.84   1
   8  -8   6 63341.3 2028.25   1
  -8   6  -8 60919.5 2243.00   1
   6  -8   8 64502.4 2165.14   1
   1  -1   9 147228. 2356.89   1
  -1   1   9 146710. 2015.49   1
  -1  -1   9 147069. 2181.06   1
   1   1  -9 142721. 2319.86   1
   1   1   9 149932. 2440.71   1
  -1  -1  -9 140909. 2339.55   1
   1  -1  -9 151142. 2238.25   1
  -1   1  -9 154734. 2670.92   1
   3  -1  -9 92454.6 1573.12   1
   1   3  -9 87589.0 1924.39   1
   3   1   9 89493.4 2102.98   1
  -1   3   9 92677.6 1639.28   1
  -1   3  -9 91046.5 2185.31   1
   9  -3  -1 91247.2 1786.80   1
   1  -3   9 94452.4 2069.20   1
  -3  -1  -9 88826.1 1981.77   1
   3  -1   9 78742.8 1954.45   1
   3   1  -9 90637.2 1669.20   1
  -3   1  -9 87268.4 2118.97   1
   1   3   9 85017.2 1970.00   1
   9  -3   1 84724.6 1919.45   1
   9  -3  -3 15331.5 639.987   1
   9  -3   3 15766.5 891.290   1
  -3   3  -9 14993.4 928.022   1
   3  -3   9 15765.7 893.799   1
  -3   3   9 15646.3 494.314   1
  -9   3  -3 13001.7 775.129   1
   9  -5  -1 107736. 1857.70   1
   9  -5   1 110754. 2155.44   1
  -9   5  -1 114604. 2186.83   1
   5  -1   9 110844. 2576.90   1
   5  -1  -9 110414. 1510.12   1
   5   1   9 118318. 2879.08   1
  -5   1  -9 112865. 2539.84   1
  -9   5   1 111765. 1861.28   1
   5  -3   9 17626.2 1027.33   1
   9  -3   5 15471.4 1010.33   1
  -3   5   9 19127.1 580.538   1
  -3   5  -9 19671.2 1162.64   1
   9  -5   3 17602.5 942.278   1
  -9   3  -5 17725.8 1007.69   1
   3  -5   9 20021.7 1081.34   1
   9  -3  -5 18667.2 586.633   1
   9  -5  -3 17322.0 609.372   1
  -5   3  -9 15726.0 1028.64   1
  -9   5  -3 17246.3 943.842   1
  -5   5  -9 124694. 2965.54   1
   5  -5   9 132893. 2855.31   1
  -9   5  -5 122084. 2728.32   1
   9  -5   5 132427. 2831.41   1
  -7   1  -9 1801.04 356.783   1
   9  -7   1 1735.18 253.816   1
  -7   9  -1 1815.23 291.217   1
   9  -7  -1 1578.78 222.531   1
  -7   9   1 1772.13 260.809   1
   7  -1   9 1567.64 329.090   1
  -9   7   1 1446.62 222.453   1
  -9   7  -1 1900.89 301.953   1
   9  -7   3 24077.4 1122.12   1
   9  -3   7 22856.7 1283.60   1
  -7   9  -3 24148.4 1205.31   1
  -9   3  -7 23782.4 1251.38   1
  -7   9   3 24113.9 849.512   1
   7  -3   9 21743.8 1247.11   1
  -9   7   3 27106.1 840.623   1
  -9   7  -3 23783.6 1194.57   1
  -7   3  -9 24219.0 1289.69   1
  -7   9  -5 416.706 190.266   1
   9  -7   5 491.634 175.485   1
  -7   9   5 681.608 128.249   1
  -9   5  -7 1077.60 288.025   1
  -7   5  -9 927.470 251.917   1
   5  -7   9 1202.14 293.758   1
  -9   7  -5 479.107 179.604   1
   9  -5   7 1039.81 265.361   1
  -5   7  -9 701.728 258.375   1
   7  -9   5 703.150 217.613   1
   7  -5   9 560.365 182.120   1
   7  -9   7 12428.6 962.672   1
   9  -7   7 12937.0 961.724   1
   7  -7   9 11510.2 942.579   1
  -7   9   7 9683.90 297.472   1
  -9   9   1 24580.0 1031.53   1
  -9   9  -1 23421.1 1142.84   1
  -9   9  -3 10679.6 833.749   1
   9  -3   9 10603.9 988.599   1
  -9   9   3 11300.2 634.509   1
   9  -9   3 11730.1 808.316   1
  -9   9  -5 57449.7 2142.89   1
  -9   9   5 58453.1 1058.44   1
   9  -9   5 62359.5 2042.17   1
   0   0 -10 9.68715 27.3930   1
   2   0 -10 34295.3 1111.30   1
   0  -2  10 33218.4 1189.06   1
   0   2 -10 33496.7 1286.79   1
   0   2  10 35330.6 1152.52   1
  -2   0 -10 31778.5 1239.89   1
   2   0  10 34288.0 1279.59   1
   0  -2 -10 33633.0 1104.10   1
  -2   0  10 33545.0 1012.14   1
  -2   2 -10 15877.7 969.164   1
   2  -2  10 17299.6 915.904   1
   2   2  10 15264.4 856.006   1
  -2   2  10 15699.7 629.202   1
   2  -2 -10 16886.6 707.513   1
   2   2 -10 14350.2 781.569   1
   4   0 -10 5.28672 20.6593   1
  -4   0 -10 56.7474 72.6177   1
  10  -4  -2 27234.0 974.318   1
  10  -4   2 27442.7 1203.74   1
  -2   4 -10 27813.6 1332.86   1
  -2   4  10 26112.9 821.858   1
   2  -4  10 27208.1 1261.42   1
   4  -2  10 27435.1 1259.49   1
   4  -2 -10 30403.2 835.817   1
  -4   2 -10 25282.6 1285.07   1
 -10   4  -2 27494.1 1129.80   1
   4   2  10 28243.6 1428.00   1
 -10   4  -4 1920.01 326.460   1
  10  -4  -4 1960.62 219.798   1
  -4   4 -10 1674.29 345.037   1
  10  -4   4 1504.90 293.246   1
   6   0  10 93357.4 2591.96   1
  -6   0 -10 94465.2 2477.12   1
 -10   6   0 93698.0 1984.23   1
  10  -6   0 96272.3 1937.00   1
  10  -6  -2 3987.45 347.489   1
   6  -2  10 4498.69 552.801   1
 -10   6  -2 3872.45 439.224   1
  -6   2 -10 3876.38 502.271   1
  10  -6   2 3801.68 439.521   1
  -2   6  10 3644.65 333.676   1
   6  -2 -10 4445.76 296.205   1
  -4   6 -10 100883. 2858.14   1
  10  -4   6 100138. 2778.94   1
  10  -4  -6 87502.3 1160.22   1
  10  -6  -4 98244.1 1307.20   1
 -10   4  -6 88888.6 2469.76   1
   4  -6  10 97133.9 2581.18   1
 -10   6  -4 97288.2 2489.10   1
  10  -6   4 101837. 2479.50   1
  -4   6  10 97459.7 1088.02   1
  -6   4 -10 104306. 2880.84   1
   6  -4  10 97968.9 2623.99   1
 -10   6  -6 1003.93 277.624   1
   6  -6  10 1047.16 286.979   1
  10  -6   6 968.285 252.746   1
  -8  10   0 2.39162 19.5230   1
  10  -8   0 48.0066 51.4818   1
   8  -2 -10 288.163 63.9214   1
 -10   8   2 240.251 75.0802   1
  10  -8  -2 246.293 80.9332   1
 -10   8  -2 168.008 101.270   1
  10  -8   2 196.055 98.2977   1
   8  -2  10 89.0893 109.254   1
  -8  10   2 137.012 82.6850   1
  -8  10  -2 341.958 168.140   1
  10  -4   8 1979.59 404.426   1
  -8  10   4 2232.86 276.971   1
  10  -8   4 2234.10 356.922   1
 -10   8  -4 2466.63 423.175   1
   8  -4  10 2461.78 448.732   1
  -8  10  -4 2700.25 443.467   1
  10  -8   6 16023.1 1045.91   1
 -10  10   0 154809. 3083.17   1
 -10  10   2 2.00908 266.934   1
 -10  10  -4 83713.3 2579.17   1
 -10  10   4 85835.8 1599.24   1
  10 -10   4 87730.2 2442.63   1
   1   1 -11 112943. 2299.44   1
   1  -1  11 110692. 2293.69   1
  -1   1  11 116543. 2058.54   1
   1   1  11 107505. 2198.05   1
   1  -1 -11 112073. 2143.70   1
  -1  -1  11 108583. 2110.25   1
  -1   1 -11 117264. 2582.06   1
   1   3  11 54113.6 1585.98   1
  -1   3 -11 56948.8 1871.85   1
   1  -3  11 57403.4 1760.43   1
   3   1  11 54026.8 1823.75   1
   3   1 -11 54294.6 1472.04   1
   1   3 -11 56201.8 1711.82   1
  -3  -1 -11 56810.5 1773.26   1
  -1   3  11 57180.9 1407.91   1
   3  -1  11 53046.0 1752.09   1
  -3   1 -11 54933.9 1820.14   1
   3  -1 -11 59497.7 1441.24   1
   3  -3  11 72315.3 2109.68   1
  -3   3  11 69695.3 1271.36   1
  -3   3 -11 68231.2 2219.12   1
   5  -1 -11 22409.8 784.159   1
  -1   5  11 21941.8 894.674   1
   5   1  11 21269.6 1263.36   1
  11  -5   1 22856.0 1130.55   1
  11  -5  -1 21814.2 969.459   1
   5  -1  11 21869.7 1231.83   1
  -1   5 -11 20216.0 1194.73   1
  -5   1 -11 20711.7 1192.39   1
  11  -3   5 13059.2 968.236   1
  -3   5 -11 12158.5 1010.96   1
  11  -5   3 13282.7 913.610   1
  11  -5  -3 14890.0 695.364   1
 -11   5  -3 14872.1 932.589   1
   3  -5  11 13595.5 970.750   1
  -3   5  11 14002.2 549.537   1
  -5   3 -11 12615.6 1014.54   1
   5  -3  11 15178.5 1018.75   1
   5  -5  11 60701.4 2077.95   1
  11  -5   5 54390.3 1985.06   1
 -11   5  -5 57117.4 2001.96   1
  11  -5  -5 59253.5 1071.86   1
  11  -7   1 23354.0 1074.93   1
  11  -7  -1 25151.2 995.288   1
   7  -1  11 23422.0 1424.97   1
   7  -1 -11 20874.6 687.430   1
 -11   7   1 23252.8 970.855   1
 -11   7  -1 23963.3 1123.63   1
  -3   7  11 38905.6 977.896   1
  11  -3   7 34086.8 1664.63   1
  11  -7  -3 36659.1 946.462   1
   7  -3  11 37887.9 1741.91   1
 -11   7  -3 36665.3 1492.03   1
  11  -7   3 40662.1 1555.17   1
 -11   7  -5 1405.53 328.390   1
  11  -5   7 1291.62 306.239   1
  11  -7   5 930.732 254.891   1
  11  -9  -1 5795.87 474.932   1
 -11   9   1 5058.92 502.663   1
  11  -9   1 5840.04 536.185   1
 -11   9  -1 6117.65 590.747   1
  11  -9   3 101.176 80.3484   1
 -11   9   3 2.99407 41.1399   1
 -11   9  -3 6.22575 48.6576   1
  -9  11   5 9806.59 540.720   1
  11  -9   5 13825.8 978.538   1
 -11  11   1 341.654 143.128   1
 -11  11  -1 138.307 115.447   1
 -11  11   3 7222.11 530.347   1
   0   0  12 13833.3 798.912   1
   0   0 -12 13774.9 862.816   1
   2   0 -12 13.3362 25.6594   1
   0  -2  12 9.20211 40.5680   1
   0   2  12 9.54302 48.4403   1
   2   0  12 12.1123 16.1460   1
  -2   0  12 10.3003 26.8342   1
   2   2  12 97.2339 75.3081   1
   2  -2 -12 175.413 81.8529   1
   2  -2  12 48.6037 57.8192   1
  -2   2  12 104.198 61.0733   1
   2   2 -12 6.90416 10.8463   1
   0   4 -12 209.307 148.713   1
  -4   0 -12 136.988 100.942   1
   4   0  12 93.6919 68.3119   1
  12  -4   0 367.363 146.497   1
   4   0 -12 428.492 123.745   1
   0   4  12 321.056 118.070   1
  12  -4  -2 49568.4 1516.36   1
  12  -4   2 50105.1 1776.16   1
  -2   4 -12 47389.1 1912.89   1
   4   2  12 54107.5 1989.06   1
   4  -2 -12 55301.1 1296.92   1
   2  -4  12 54346.7 1913.02   1
  -4   2 -12 53870.2 2002.92   1
  -2   4  12 52921.0 1276.47   1
   4  -2  12 52642.7 1893.17   1
  -4   4 -12 1646.24 413.743   1
  12  -4  -4 1065.85 204.044   1
   4  -4  12 954.960 257.686   1
  12  -4   4 870.367 262.078   1
  12  -6   0 125.394 78.9251   1
 -12   6  -2 1099.58 249.900   1
  12  -6   2 1076.64 254.947   1
   6  -2  12 1275.10 319.618   1
  12  -6  -2 1034.55 193.822   1
   6  -2 -12 1268.81 180.332   1
  -2   6  12 1105.68 197.080   1
  12  -4  -6 20906.2 722.553   1
  12  -4   6 17498.5 1242.21   1
 -12   6  -4 20861.1 1227.22   1
  12  -6   4 19089.0 1154.23   1
  12  -6  -4 20254.0 726.269   1
  12  -8   0 2181.12 306.606   1
 -12   8   0 2287.30 332.573   1
  12  -8   2 95577.4 2409.80   1
  12  -8  -2 101031. 1929.44   1
 -12   8  -2 93344.4 2457.23   1
   8  -2 -12 97903.4 1365.67   1
  12  -8   4 430.757 178.506   1
  -4   8  12 597.882 106.655   1
  12 -10   2 46.7620 46.7421   1
 -12  12   0 307.061 165.242   1
 -12  12   2 51032.3 1621.58   1
   1  -1  13 38665.8 1472.40   1
  -1   1  13 39238.7 1286.76   1
  -1  -1 -13 38554.3 1484.48   1
   1  -1 -13 40015.3 1382.72   1
  -1   1 -13 38264.3 1622.52   1
   1   1  13 36177.9 1402.66   1
  -1  -1  13 38081.6 1394.33   1
   1   1 -13 40534.3 1606.42   1
  -1   3 -13 31359.9 1540.44   1
   3   1 -13 30027.1 1198.80   1
   1   3 -13 29202.9 1398.38   1
   1   3  13 30346.6 1316.09   1
   3   1  13 30214.3 1427.72   1
  -3  -1 -13 29399.5 1377.36   1
  -3   1 -13 30225.0 1488.20   1
   3  -1 -13 32298.7 1180.04   1
   1  -3  13 31103.2 1433.09   1
  -1   3  13 31194.9 1127.91   1
   3  -1  13 30829.7 1438.99   1
   3   3  13 69813.5 2288.85   1
   3  -3  13 68665.6 2198.15   1
  -3   3  13 73143.6 1518.46   1
  -3   3 -13 72044.7 2509.23   1
  13  -5  -1 25732.6 1181.97   1
  13  -5   1 26244.7 1301.22   1
   5   1  13 26274.4 1513.09   1
  -1   5  13 25350.2 1047.21   1
   5  -1  13 23986.3 1395.48   1
   5  -1 -13 27241.8 1013.49   1
  -3   5  13 7875.26 465.856   1
  13  -5  -3 7356.26 564.281   1
  13  -5   3 7015.81 729.981   1
   3  -5  13 8888.94 855.845   1
  13  -5   5 12943.2 1071.02   1
  13  -5  -5 13254.0 629.870   1
   7  -1 -13 7014.91 450.252   1
  13  -7   1 8960.91 734.122   1
  13  -7  -1 8422.87 631.565   1
  13  -7  -3 24587.5 928.733   1
 -13   7  -3 21980.2 1249.84   1
  -3   7  13 22083.5 772.153   1
  13  -7   3 21396.3 1207.84   1
 -13   9  -1 2267.86 382.269   1
  13  -9   1 2518.53 368.670   1
 -13   9   1 2429.52 356.743   1
  13  -9  -1 2648.68 341.605   1
  13  -9   3 2324.24 413.420   1
 -13  11   1 388.336 142.412   1
 -13  11  -1 298.919 150.934   1
   0   0  14 4.70085 48.2854   1
   2   0  14 12654.4 919.497   1
   0   2  14 12975.7 810.957   1
   0  -2 -14 12969.1 832.002   1
  -2   0 -14 12534.7 939.400   1
   2   0 -14 12419.9 823.693   1
   0  -2  14 13515.0 928.416   1
   0   2 -14 12968.5 1011.70   1
   2   2 -14 11474.2 837.578   1
   2  -2  14 12450.9 935.650   1
   2  -2 -14 14340.2 814.910   1
   2   2  14 12466.7 910.674   1
  -2   2  14 13255.2 766.695   1
  -2   2 -14 12190.3 981.873   1
   0   4  14 8.87640 34.6869   1
   0   4 -14 3.57882 23.8532   1
   4   2  14 1269.36 311.027   1
  -2   4  14 1535.42 244.359   1
   4  -2 -14 1363.80 235.593   1
   2  -4  14 1265.31 320.928   1
   4  -2  14 1158.35 325.418   1
   6   0 -14 56171.4 1451.33   1
  14  -6   0 60264.3 1943.63   1
  14  -6   2 5215.46 628.512   1
  14  -6  -2 5624.17 526.790   1
  -2   6  14 5577.06 449.293   1
  14  -6  -4 35249.5 1113.47   1
  14  -8   0 35.4809 56.0234   1
  14  -8   2 6516.19 669.982   1
  14  -8  -2 5777.67 479.072   1
 -14   8  -2 5664.13 641.752   1
 -14  10   0 47991.2 1715.78   1
  14 -10   0 51156.5 1680.02   1
  14 -10   2 723.661 231.874   1
 -14  12   0 76.5164 75.9686   1
  -1  -1  15 28277.7 1314.75   1
   1   1  15 28412.4 1347.74   1
   1  -1  15 27890.1 1345.13   1
  -1   1  15 30684.2 1304.56   1
  -1  -1 -15 29493.1 1415.20   1
   1  -1 -15 28533.5 1306.97   1
  -1   1 -15 27621.9 1439.45   1
   1   1 -15 28708.2 1416.41   1
   1   3 -15 6832.81 728.244   1
   3  -1  15 8026.60 811.291   1
  -1   3  15 8738.34 651.459   1
   3  -1 -15 8063.84 632.847   1
   1   3  15 6236.73 625.188   1
   3   1  15 7836.66 772.338   1
   1  -3  15 6850.19 744.747   1
   3   1 -15 7299.12 676.206   1
   3   3  15 16926.3 1186.30   1
   5  -1 -15 27236.7 1054.04   1
  -1   5  15 26221.8 1075.56   1
  15  -7  -1 256.566 127.894   1
  15  -9   1 12475.3 882.876   1
  15  -9  -1 10307.7 697.698   1
   0   0  16 16941.4 1082.96   1
   0   0 -16 15000.4 1031.16   1
   2   0  16 3.48833 32.8806   1
   0   2  16 110.709 76.7426   1
   0  -2  16 79.2548 115.422   1
   2  -2 -16 472.660 152.764   1
  -2   2  16 459.368 155.035   1
   2   2 -16 257.016 128.498   1
   2   2  16 674.740 222.012   1
   4   0 -16 22047.8 1106.24   1
   0   4  16 22402.6 1115.90   1
  -2   4  16 13134.3 728.718   1
  16  -8   0 3941.86 516.338   1
   1   1  17 9703.10 824.914   1
   1  -1 -17 8616.77 783.554   1
  -1   1  17 8516.34 725.692   1
  -1   3  17 8691.98 657.477   1
   3  -1 -17 7687.17 667.821   1
   3   1 -17 7049.26 701.535   1
   1   3  17 7693.43 727.135   1
   2   0 -18 2646.70 445.602   1
   0   2  18 3459.55 475.497   1
   0   0   0    0.00    0.00   0
TITL marseno_007 in Fd-3m
REM Fd-3m (#227 in standard setting)
CELL 0.41427  11.014393  11.014393  11.014393  90.0000  90.0000  90.0000
ZERR    6.00   0.000127   0.000127   0.000127   0.0000   0.0000   0.0000
LATT  4
SYMM -x+3/4,-y+1/4, z+1/2
SYMM -x+1/4, y+1/2,-z+3/4
SYMM  x+1/2,-y+3/4,-z+1/4
SYMM  z, x, y
SYMM  z+1/2,-x+3/4,-y+1/4
SYMM -z+3/4,-x+1/4, y+1/2
SYMM -z+1/4, x+1/2,-y+3/4
SYMM  y, z, x
SYMM -y+1/4, z+1/2,-x+3/4
SYMM  y+1/2,-z+3/4,-x+1/4
SYMM -y+3/4,-z+1/4, x+1/2
SYMM  y+3/4, x+1/4,-z+1/2
SYMM -y,-x,-z
SYMM  y+1/4,-x+1/2, z+3/4
SYMM -y+1/2, x+3/4, z+1/4
SYMM  x+3/4, z+1/4,-y+1/2
SYMM -x+1/2, z+3/4, y+1/4
SYMM -x,-z,-y
SYMM  x+1/4,-z+1/2, y+3/4
SYMM  z+3/4, y+1/4,-x+1/2
SYMM  z+1/4,-y+1/2, x+3/4
SYMM -z+1/2, y+3/4, x+1/4
SYMM -z,-y,-x
SFAC O As
UNIT 36.00 24.00
TREF
HKLF 4
END
;
_shelx_hkl_checksum              77518
_shelx_shelxl_version_number     2014/7
loop_
_space_group_symop_operation_xyz
'x, y, z'
'-x+3/4, -y+1/4, z+1/2'
'-x+1/4, y+1/2, -z+3/4'
'x+1/2, -y+3/4, -z+1/4'
'z, x, y'
'z+1/2, -x+3/4, -y+1/4'
'-z+3/4, -x+1/4, y+1/2'
'-z+1/4, x+1/2, -y+3/4'
'y, z, x'
'-y+1/4, z+1/2, -x+3/4'
'y+1/2, -z+3/4, -x+1/4'
'-y+3/4, -z+1/4, x+1/2'
'y+3/4, x+1/4, -z+1/2'
'-y, -x, -z'
'y+1/4, -x+1/2, z+3/4'
'-y+1/2, x+3/4, z+1/4'
'x+3/4, z+1/4, -y+1/2'
'-x+1/2, z+3/4, y+1/4'
'-x, -z, -y'
'x+1/4, -z+1/2, y+3/4'
'z+3/4, y+1/4, -x+1/2'
'z+1/4, -y+1/2, x+3/4'
'-z+1/2, y+3/4, x+1/4'
'-z, -y, -x'
'x, y+1/2, z+1/2'
'-x+3/4, -y+3/4, z+1'
'-x+1/4, y+1, -z+5/4'
'x+1/2, -y+5/4, -z+3/4'
'z, x+1/2, y+1/2'
'z+1/2, -x+5/4, -y+3/4'
'-z+3/4, -x+3/4, y+1'
'-z+1/4, x+1, -y+5/4'
'y, z+1/2, x+1/2'
'-y+1/4, z+1, -x+5/4'
'y+1/2, -z+5/4, -x+3/4'
'-y+3/4, -z+3/4, x+1'
'y+3/4, x+3/4, -z+1'
'-y, -x+1/2, -z+1/2'
'y+1/4, -x+1, z+5/4'
'-y+1/2, x+5/4, z+3/4'
'x+3/4, z+3/4, -y+1'
'-x+1/2, z+5/4, y+3/4'
'-x, -z+1/2, -y+1/2'
'x+1/4, -z+1, y+5/4'
'z+3/4, y+3/4, -x+1'
'z+1/4, -y+1, x+5/4'
'-z+1/2, y+5/4, x+3/4'
'-z, -y+1/2, -x+1/2'
'x+1/2, y, z+1/2'
'-x+5/4, -y+1/4, z+1'
'-x+3/4, y+1/2, -z+5/4'
'x+1, -y+3/4, -z+3/4'
'z+1/2, x, y+1/2'
'z+1, -x+3/4, -y+3/4'
'-z+5/4, -x+1/4, y+1'
'-z+3/4, x+1/2, -y+5/4'
'y+1/2, z, x+1/2'
'-y+3/4, z+1/2, -x+5/4'
'y+1, -z+3/4, -x+3/4'
'-y+5/4, -z+1/4, x+1'
'y+5/4, x+1/4, -z+1'
'-y+1/2, -x, -z+1/2'
'y+3/4, -x+1/2, z+5/4'
'-y+1, x+3/4, z+3/4'
'x+5/4, z+1/4, -y+1'
'-x+1, z+3/4, y+3/4'
'-x+1/2, -z, -y+1/2'
'x+3/4, -z+1/2, y+5/4'
'z+5/4, y+1/4, -x+1'
'z+3/4, -y+1/2, x+5/4'
'-z+1, y+3/4, x+3/4'
'-z+1/2, -y, -x+1/2'
'x+1/2, y+1/2, z'
'-x+5/4, -y+3/4, z+1/2'
'-x+3/4, y+1, -z+3/4'
'x+1, -y+5/4, -z+1/4'
'z+1/2, x+1/2, y'
'z+1, -x+5/4, -y+1/4'
'-z+5/4, -x+3/4, y+1/2'
'-z+3/4, x+1, -y+3/4'
'y+1/2, z+1/2, x'
'-y+3/4, z+1, -x+3/4'
'y+1, -z+5/4, -x+1/4'
'-y+5/4, -z+3/4, x+1/2'
'y+5/4, x+3/4, -z+1/2'
'-y+1/2, -x+1/2, -z'
'y+3/4, -x+1, z+3/4'
'-y+1, x+5/4, z+1/4'
'x+5/4, z+3/4, -y+1/2'
'-x+1, z+5/4, y+1/4'
'-x+1/2, -z+1/2, -y'
'x+3/4, -z+1, y+3/4'
'z+5/4, y+3/4, -x+1/2'
'z+3/4, -y+1, x+3/4'
'-z+1, y+5/4, x+1/4'
'-z+1/2, -y+1/2, -x'
'-x, -y, -z'
'x-3/4, y-1/4, -z-1/2'
'x-1/4, -y-1/2, z-3/4'
'-x-1/2, y-3/4, z-1/4'
'-z, -x, -y'
'-z-1/2, x-3/4, y-1/4'
'z-3/4, x-1/4, -y-1/2'
'z-1/4, -x-1/2, y-3/4'
'-y, -z, -x'
'y-1/4, -z-1/2, x-3/4'
'-y-1/2, z-3/4, x-1/4'
'y-3/4, z-1/4, -x-1/2'
'-y-3/4, -x-1/4, z-1/2'
'y, x, z'
'-y-1/4, x-1/2, -z-3/4'
'y-1/2, -x-3/4, -z-1/4'
'-x-3/4, -z-1/4, y-1/2'
'x-1/2, -z-3/4, -y-1/4'
'x, z, y'
'-x-1/4, z-1/2, -y-3/4'
'-z-3/4, -y-1/4, x-1/2'
'-z-1/4, y-1/2, -x-3/4'
'z-1/2, -y-3/4, -x-1/4'
'z, y, x'
'-x, -y+1/2, -z+1/2'
'x-3/4, y+1/4, -z'
'x-1/4, -y, z-1/4'
'-x-1/2, y-1/4, z+1/4'
'-z, -x+1/2, -y+1/2'
'-z-1/2, x-1/4, y+1/4'
'z-3/4, x+1/4, -y'
'z-1/4, -x, y-1/4'
'-y, -z+1/2, -x+1/2'
'y-1/4, -z, x-1/4'
'-y-1/2, z-1/4, x+1/4'
'y-3/4, z+1/4, -x'
'-y-3/4, -x+1/4, z'
'y, x+1/2, z+1/2'
'-y-1/4, x, -z-1/4'
'y-1/2, -x-1/4, -z+1/4'
'-x-3/4, -z+1/4, y'
'x-1/2, -z-1/4, -y+1/4'
'x, z+1/2, y+1/2'
'-x-1/4, z, -y-1/4'
'-z-3/4, -y+1/4, x'
'-z-1/4, y, -x-1/4'
'z-1/2, -y-1/4, -x+1/4'
'z, y+1/2, x+1/2'
'-x+1/2, -y, -z+1/2'
'x-1/4, y-1/4, -z'
'x+1/4, -y-1/2, z-1/4'
'-x, y-3/4, z+1/4'
'-z+1/2, -x, -y+1/2'
'-z, x-3/4, y+1/4'
'z-1/4, x-1/4, -y'
'z+1/4, -x-1/2, y-1/4'
'-y+1/2, -z, -x+1/2'
'y+1/4, -z-1/2, x-1/4'
'-y, z-3/4, x+1/4'
'y-1/4, z-1/4, -x'
'-y-1/4, -x-1/4, z'
'y+1/2, x, z+1/2'
'-y+1/4, x-1/2, -z-1/4'
'y, -x-3/4, -z+1/4'
'-x-1/4, -z-1/4, y'
'x, -z-3/4, -y+1/4'
'x+1/2, z, y+1/2'
'-x+1/4, z-1/2, -y-1/4'
'-z-1/4, -y-1/4, x'
'-z+1/4, y-1/2, -x-1/4'
'z, -y-3/4, -x+1/4'
'z+1/2, y, x+1/2'
'-x+1/2, -y+1/2, -z'
'x-1/4, y+1/4, -z-1/2'
'x+1/4, -y, z-3/4'
'-x, y-1/4, z-1/4'
'-z+1/2, -x+1/2, -y'
'-z, x-1/4, y-1/4'
'z-1/4, x+1/4, -y-1/2'
'z+1/4, -x, y-3/4'
'-y+1/2, -z+1/2, -x'
'y+1/4, -z, x-3/4'
'-y, z-1/4, x-1/4'
'y-1/4, z+1/4, -x-1/2'
'-y-1/4, -x+1/4, z-1/2'
'y+1/2, x+1/2, z'
'-y+1/4, x, -z-3/4'
'y, -x-1/4, -z-1/4'
'-x-1/4, -z+1/4, y-1/2'
'x, -z-1/4, -y-1/4'
'x+1/2, z+1/2, y'
'-x+1/4, z, -y-3/4'
'-z-1/4, -y+1/4, x-1/2'
'-z+1/4, y, -x-3/4'
'z, -y-1/4, -x-1/4'
'z+1/2, y+1/2, x'
loop_
_atom_site_label
_atom_site_type_symbol
_atom_site_fract_x
_atom_site_fract_y
_atom_site_fract_z
_atom_site_U_iso_or_equiv
_atom_site_adp_type
_atom_site_occupancy
_atom_site_site_symmetry_order
_atom_site_calc_flag
_atom_site_refinement_flags_posn
_atom_site_refinement_flags_adp
_atom_site_refinement_flags_occupancy
As1 As 0.27149(3) 0.27149(3) 0.27149(3) 0.0165(3) Uani 1 6 d S T P
O1 O 0.3750 0.3750 0.2004(3) 0.0179(6) Uani 1 4 d S T P
loop_
_atom_site_aniso_label
_atom_site_aniso_U_11
_atom_site_aniso_U_22
_atom_site_aniso_U_33
_atom_site_aniso_U_23
_atom_site_aniso_U_13
_atom_site_aniso_U_12
As1 0.0165(3) 0.0165(3) 0.0165(3) -0.00157(9) -0.00157(9) -0.00157(9)
O1 0.0196(8) 0.0196(8) 0.0145(11) 0.000 0.000 -0.0014(12)
loop_
_atom_type_symbol
_atom_type_description
_atom_type_scat_dispersion_real
_atom_type_scat_dispersion_imag
_atom_type_scat_source
O O 0.0020 0.0020 'International Tables Vol C Tables 4.2.6.8 and 6.1.1.4'
As As 0.3110 0.7990 'International Tables Vol C Tables 4.2.6.8 and 6.1.1.4'
loop_
_geom_angle_atom_site_label_1
_geom_angle_atom_site_label_2
_geom_angle_atom_site_label_3
_geom_angle
_geom_angle_site_symmetry_1
_geom_angle_site_symmetry_3
O1 As1 O1 98.69(11) 5 9
O1 As1 O1 98.69(11) 5 .
O1 As1 O1 98.69(11) 9 .
As1 O1 As1 128.19(17) 26_554 .
loop_
_geom_bond_atom_site_label_1
_geom_bond_atom_site_label_2
_geom_bond_distance
_geom_bond_site_symmetry_2
As1 O1 1.7924(13) 5
As1 O1 1.7924(13) 9
As1 O1 1.7924(13) .
O1 As1 1.7924(13) 26_554
