#------------------------------------------------------------------------------
#$Date: 2015-09-04 08:12:49 +0300 (Fri, 04 Sep 2015) $
#$Revision: 153928 $
#$URL: svn://www.crystallography.net/cod/cif/4/51/35/4513573.cif $
#------------------------------------------------------------------------------
#
# This file is available in the Crystallography Open Database (COD),
# http://www.crystallography.net/
#
# All data on this site have been placed in the public domain by the
# contributors.
#
data_4513573
loop_
_publ_author_name
'Gu\'nka, Piotr A.'
'Dziubek, Kamil F.'
'G\/ladysiak, Andrzej'
'Dranka, Maciej'
'Piechota, Jacek'
'Hanfland, Michael'
'Katrusiak, Andrzej'
'Zachara, Janusz'
_publ_section_title
;
 Compressed Arsenolite As4O6and Its Helium Clathrate As4O6&#x00B7;2He
;
_journal_issue                   8
_journal_name_full               'Crystal Growth &amp; Design'
_journal_page_first              3740
_journal_paper_doi               10.1021/acs.cgd.5b00390
_journal_volume                  15
_journal_year                    2015
_chemical_formula_moiety         'As4 O6'
_chemical_formula_sum            'As4 O6'
_chemical_formula_weight         395.68
_chemical_name_common            arsenolite
_space_group_crystal_system      cubic
_space_group_IT_number           227
_space_group_name_Hall           '-F 4vw 2vw 3'
_space_group_name_H-M_alt        'F d -3 m'
_symmetry_space_group_name_Hall  '-F 4vw 2vw 3'
_symmetry_space_group_name_H-M   'F d -3 m :2'
_atom_sites_solution_primary     direct
_audit_creation_date             2014-10-15
_audit_creation_method
;
Olex2 1.2-beta
(compiled 2014.09.19 svn.r3010 for OlexSys, GUI svn.r4874)
;
_cell_angle_alpha                90
_cell_angle_beta                 90
_cell_angle_gamma                90
_cell_formula_units_Z            8
_cell_length_a                   10.2876(4)
_cell_length_b                   10.2876(4)
_cell_length_c                   10.2876(4)
_cell_measurement_pressure       6.01e6(7)
_cell_measurement_reflns_used    421
_cell_measurement_temperature    293(2)
_cell_measurement_theta_max      20.3630
_cell_measurement_theta_min      1.9840
_cell_volume                     1088.79(7)
_computing_cell_refinement
;
CrysAlisPro, Agilent Technologies,
Version 1.171.37.34 (release 22-05-2014 CrysAlis171 .NET)
(compiled May 22 2014,16:03:01)
;
_computing_data_collection
;
CrysAlisPro, Agilent Technologies,
Version 1.171.37.34 (release 22-05-2014 CrysAlis171 .NET)
(compiled May 22 2014,16:03:01)
;
_computing_data_reduction
;
CrysAlisPro, Agilent Technologies,
Version 1.171.37.34 (release 22-05-2014 CrysAlis171 .NET)
(compiled May 22 2014,16:03:01)
;
_computing_molecular_graphics    'Olex2 (Dolomanov et al., 2009)'
_computing_publication_material  'Olex2 (Dolomanov et al., 2009)'
_computing_structure_refinement  'ShelXL (Sheldrick, 2008)'
_computing_structure_solution    'ShelXT (Sheldrick, 2008)'
_diffrn_ambient_environment      He
_diffrn_ambient_pressure         6.01e6(7)
_diffrn_ambient_temperature      293(2)
_diffrn_detector                 'CCD plate'
_diffrn_measured_fraction_theta_full 0.881
_diffrn_measured_fraction_theta_max 0.677
_diffrn_measurement_details
;
  1 phi    148.00  212.00   0.5000    1.0000
omega____ theta____ kappa____ phi______ frames
   0.0000    0.0000    0.0000     -     128
;
_diffrn_measurement_device       'abstract diffractometer'
_diffrn_measurement_device_type
'MAR-CrysAlisPro-abstract goniometer: imported MAR images'
_diffrn_measurement_method       '\p scans'
_diffrn_orient_matrix_UB_11      0.0235509000
_diffrn_orient_matrix_UB_12      -0.0326872000
_diffrn_orient_matrix_UB_13      -0.0005111000
_diffrn_orient_matrix_UB_21      -0.0222527000
_diffrn_orient_matrix_UB_22      -0.0155739000
_diffrn_orient_matrix_UB_23      -0.0296901000
_diffrn_orient_matrix_UB_31      0.0238962000
_diffrn_orient_matrix_UB_32      0.0176295000
_diffrn_orient_matrix_UB_33      -0.0272093000
_diffrn_radiation_monochromator  synchrotron
_diffrn_radiation_probe          x-ray
_diffrn_radiation_wavelength     0.41427
_diffrn_reflns_av_R_equivalents  0.0264
_diffrn_reflns_av_unetI/netI     0.0181
_diffrn_reflns_laue_measured_fraction_full 0.881
_diffrn_reflns_laue_measured_fraction_max 0.677
_diffrn_reflns_limit_h_max       13
_diffrn_reflns_limit_h_min       -15
_diffrn_reflns_limit_k_max       12
_diffrn_reflns_limit_k_min       -10
_diffrn_reflns_limit_l_max       16
_diffrn_reflns_limit_l_min       -17
_diffrn_reflns_number            522
_diffrn_reflns_point_group_measured_fraction_full 0.881
_diffrn_reflns_point_group_measured_fraction_max 0.677
_diffrn_reflns_theta_full        14.392
_diffrn_reflns_theta_max         20.268
_diffrn_reflns_theta_min         1.999
_diffrn_source                   synchrotron
_exptl_absorpt_coefficient_mu    5.578
_exptl_absorpt_correction_T_max  1.00000
_exptl_absorpt_correction_T_min  0.33912
_exptl_absorpt_correction_type   multi-scan
_exptl_absorpt_process_details
;
CrysAlisPro, Agilent Technologies,
Version 1.171.37.34 (release 22-05-2014 CrysAlis171 .NET)
(compiled May 22 2014,16:03:01)
Empirical absorption correction using spherical harmonics,
 implemented in SCALE3 ABSPACK scaling algorithm.
;
_exptl_crystal_density_diffrn    4.828
_exptl_crystal_description       block
_exptl_crystal_F_000             1440
_exptl_crystal_size_max          0.065
_exptl_crystal_size_mid          0.04
_exptl_crystal_size_min          0.02
_refine_diff_density_max         1.243
_refine_diff_density_min         -1.028
_refine_diff_density_rms         0.230
_refine_ls_extinction_method     none
_refine_ls_goodness_of_fit_ref   1.217
_refine_ls_hydrogen_treatment    undef
_refine_ls_matrix_type           full
_refine_ls_number_parameters     8
_refine_ls_number_reflns         107
_refine_ls_number_restraints     0
_refine_ls_restrained_S_all      1.217
_refine_ls_R_factor_all          0.0397
_refine_ls_R_factor_gt           0.0378
_refine_ls_shift/su_max          0.000
_refine_ls_shift/su_mean         0.000
_refine_ls_structure_factor_coef Fsqd
_refine_ls_weighting_details
'w=1/[\s^2^(Fo^2^)+(0.0560P)^2^+25.7280P] where P=(Fo^2^+2Fc^2^)/3'
_refine_ls_weighting_scheme      calc
_refine_ls_wR_factor_gt          0.0941
_refine_ls_wR_factor_ref         0.0959
_reflns_Friedel_coverage         0.000
_reflns_number_gt                102
_reflns_number_total             107
_reflns_threshold_expression     'I > 2\s(I)'
_cod_data_source_file            cg5b00390_si_002.cif
_cod_data_source_block           marseno_013
_cod_original_cell_volume        1088.78(12)
_cod_database_code               4513573
_shelx_space_group_comment
;
The symmetry employed for this shelxl refinement is uniquely defined
by the following loop, which should always be used as a source of
symmetry information in preference to the above space-group names.
They are only intended as comments.
;
_olex2_refinement_description
;
;
_shelx_res_file
;
    marseno_013.res created by SHELXL-2014/7

TITL marseno_013_a.res in Fd-3m
CELL 0.41427 10.287591 10.287591 10.287591 90 90 90
ZERR 8 0.00037 0.00037 0.00037 0 0 0
LATT 4
SYMM 0.75-X,0.25-Y,0.5+Z
SYMM 0.25-X,0.5+Y,0.75-Z
SYMM 0.5+X,0.75-Y,0.25-Z
SYMM +Z,+X,+Y
SYMM 0.5+Z,0.75-X,0.25-Y
SYMM 0.75-Z,0.25-X,0.5+Y
SYMM 0.25-Z,0.5+X,0.75-Y
SYMM +Y,+Z,+X
SYMM 0.25-Y,0.5+Z,0.75-X
SYMM 0.5+Y,0.75-Z,0.25-X
SYMM 0.75-Y,0.25-Z,0.5+X
SYMM 0.75+Y,0.25+X,0.5-Z
SYMM -Y,-X,-Z
SYMM 0.25+Y,0.5-X,0.75+Z
SYMM 0.5-Y,0.75+X,0.25+Z
SYMM 0.75+X,0.25+Z,0.5-Y
SYMM 0.5-X,0.75+Z,0.25+Y
SYMM -X,-Z,-Y
SYMM 0.25+X,0.5-Z,0.75+Y
SYMM 0.75+Z,0.25+Y,0.5-X
SYMM 0.25+Z,0.5-Y,0.75+X
SYMM 0.5-Z,0.75+Y,0.25+X
SYMM -Z,-Y,-X

SFAC O As
DISP As 0.311 0.799 1882.762
DISP O 0.002 0.002 10.067
UNIT 48 32

L.S. 10
PLAN  20
REM Old TITL marseno_013 in Fd-3m #227
BOND $H
LIST 6
fmap 2
acta
OMIT 0 12 12
OMIT 6 8 10
REM <HKL>E:/X-Ray_Data_Backup/ESRF_id09_2014_10/data/arsenolite/arseno_013/str
REM uct/olex2_marseno_013/marseno_013.hkl</HKL>

WGHT    0.056000   25.728001
FVAR       1.46302
AS1   2    0.263221    0.263221    0.263221    10.16667    0.01105    0.01105 =
         0.01105   -0.00049   -0.00049   -0.00049
O1    1    0.375000    0.375000    0.189063    10.25000    0.01230    0.01230 =
         0.00834    0.00000    0.00000    0.00003
HKLF 4

REM  marseno_013_a.res in Fd-3m
REM R1 =  0.0378 for     102 Fo > 4sig(Fo)  and  0.0397 for all     107 data
REM      8 parameters refined using      0 restraints

END

WGHT      0.0563     25.5598

REM Highest difference peak  1.243,  deepest hole -1.028,  1-sigma level  0.230
Q1    1   0.2649  0.2649  0.3327  10.50000  0.05    1.24
Q2    1   0.1735  0.2669  0.2669  10.50000  0.05    1.10
Q3    1   0.3750  0.3750  0.0876  10.25000  0.05    0.61
Q4    1   0.1133  0.2191  0.2191  10.50000  0.05    0.59
Q5    1   0.3750  0.3750  0.0142  10.25000  0.05    0.53
Q6    1   0.2013  0.1770  0.2013  10.50000  0.05    0.52
Q7    1   0.4339  0.2786  0.1997  11.00000  0.05    0.50
Q8    1   0.2934  0.4566  0.2934  10.16667  0.05    0.50
Q9    1   0.3750  0.3750  0.2577  10.25000  0.05    0.50
Q10   1   0.3213  0.4287  0.2474  10.50000  0.05    0.48
Q11   1   0.5000  0.3065  0.1935  10.50000  0.05    0.48
Q12   1   0.3351  0.3666  0.2462  11.00000  0.05    0.46
Q13   1   0.2914  0.4229  0.2396  11.00000  0.05    0.45
Q14   1   0.3787  0.4459  0.2196  11.00000  0.05    0.42
Q15   1   0.2160  0.2160  0.0790  10.50000  0.05    0.42
Q16   1   0.4451  0.4001  0.1598  11.00000  0.05    0.42
Q17   1   0.4359  0.4359  0.1228  10.50000  0.05    0.40
Q18   1   0.2153  0.1250  0.1250  10.25000  0.05    0.40
Q19   1   0.2744  0.2744  0.1242  10.50000  0.05    0.38
Q20   1   0.2500  0.5000  0.2500  10.08333  0.05    0.36
;
_shelx_res_checksum              62479
_shelx_hkl_file
;
  -1  -1  -1 123746. 1001.16   1
   0   0  -2 102.633 30.4756   1
   2   2   0 615.379 71.2549   1
   2   0   2 506.777 82.6242   1
  -2   0  -2 599.650 105.134   1
  -2  -2   0 459.168 65.4193   1
  -3  -1  -1 1612.33 155.865   1
  -1  -1  -3 1521.08 151.091   1
  -1   1  -3 1728.83 152.441   1
   3   1   1 1428.74 141.727   1
   1   1  -3 1577.70 94.1246   1
  -1  -1   3 1382.35 95.8262   1
  -3  -3  -1 124643. 1459.22   1
   3   3  -1 125717. 1157.71   1
   3   1   3 128704. 1617.69   1
   3   3   1 123750. 1517.09   1
  -3  -3   1 125296. 1113.52   1
   1   3   3 126895. 1531.84   1
  -3  -3  -3 30191.0 822.646   1
   3   3   3 29570.2 846.688   1
   3   3  -3 28124.4 322.824   1
   0   2   4 99.7237 70.7394   1
  -4  -2   0 9.39386 39.7196   1
   2   0   4 27.6007 68.7859   1
   4   2   0 6.40161 42.6066   1
   2   2   4 40468.5 988.891   1
  -4  -2  -2 37634.5 900.712   1
  -4  -2   2 39353.5 562.838   1
  -2  -2  -4 40654.1 940.017   1
   4   2   2 37516.2 893.410   1
   2   2  -4 40116.6 457.691   1
  -4  -4  -2 12561.7 555.458   1
   2   4   4 10888.4 527.117   1
   4   2   4 11282.7 575.794   1
  -4  -2  -4 10637.9 560.017   1
  -2  -4  -4 10702.6 535.401   1
   4   4  -2 12611.8 397.494   1
   1  -1  -5 31290.0 783.690   1
  -1   1  -5 32067.6 844.938   1
  -1  -1   5 32189.1 674.175   1
  -1   1   5 30862.5 737.304   1
   1  -1   5 31587.4 779.102   1
   1   1   5 31577.7 856.793   1
   1   1  -5 33245.2 669.190   1
  -1  -1  -5 32682.8 861.570   1
   1   3   5 20034.8 721.272   1
  -3  -1  -5 19538.4 759.531   1
  -5  -3  -1 19526.6 664.522   1
  -1  -3  -5 20044.9 719.334   1
  -3  -1   5 21193.1 440.710   1
  -5  -1  -3 20855.9 828.078   1
   5   1   3 19686.1 732.897   1
  -5  -3   1 20079.1 571.638   1
   5   3   1 19646.5 677.455   1
   3   1   5 19591.7 748.644   1
   5   3  -1 20212.0 577.196   1
  -3  -3  -5 1430.99 212.156   1
   3   5   3 1345.74 188.130   1
   3   3  -5 1159.28 60.4425   1
  -5  -3   3 1595.57 109.409   1
  -5  -3  -3 1045.67 184.803   1
   3   3   5 1444.34 242.205   1
   5   3   3 1526.83 219.196   1
  -3  -5  -3 1023.85 190.208   1
   5   1   5 230410. 2803.97   1
   5   5  -1 218934. 2108.75   1
   5   5   1 239237. 2554.02   1
  -5  -5   1 228780. 2198.13   1
  -5  -5  -1 227579. 2395.40   1
  -5  -1  -5 230159. 2974.49   1
  -5  -3  -5 24699.5 992.272   1
  -3  -5  -5 25994.4 963.609   1
   5   5  -3 28449.9 624.814   1
  -5  -5  -3 28792.0 994.759   1
   5   3   5 25239.8 997.563   1
   5   5   3 27662.3 997.746   1
   3   5   5 25218.9 967.349   1
  -5  -5  -5 98682.2 2009.95   1
   5   5   5 96778.4 2078.07   1
   2   0   6 149.347 97.4241   1
   0   2  -6 180.248 94.6615   1
  -6  -2   0 36.8416 78.2973   1
   0  -2  -6 227.235 93.0226   1
  -2   0   6 220.086 78.6276   1
   0   2   6 132.157 89.5000   1
  -2   0  -6 54.0511 93.1385   1
   6   4   0 73.4821 84.4668   1
  -6  -4   0 77.4916 82.7009   1
   4   6   0 91.7809 81.9176   1
   4   2   6 4124.82 411.586   1
   4   6   2 4086.20 343.976   1
  -6  -4   2 4538.34 267.564   1
  -4  -2   6 4076.36 165.453   1
  -2  -4  -6 4292.66 384.302   1
  -4  -2  -6 3903.61 382.926   1
  -6  -2  -4 3930.64 405.041   1
   6   2   4 4245.93 401.513   1
   6   4   2 4541.94 387.536   1
  -6  -4  -2 5122.28 410.146   1
   2   4   6 5000.22 435.048   1
   6   4  -2 4439.67 274.515   1
  -6  -4  -4 5736.69 484.770   1
  -4  -6  -4 5666.23 499.588   1
  -4  -4  -6 5954.58 480.896   1
   4   4   6 5640.20 504.441   1
   6   4   4 5986.03 510.515   1
   4   6   4 5559.28 457.516   1
  -6  -6   0 107408. 1745.78   1
   6   6   0 110246. 1863.75   1
  -4  -6  -6 6371.09 544.005   1
   6   6   4 6592.86 566.939   1
   6   4   6 6008.93 565.718   1
   6   6  -4 5912.25 281.815   1
   4   6   6 6792.10 580.789   1
  -6  -6  -4 6787.42 542.185   1
  -6  -4  -6 5770.00 531.784   1
  -6  -6  -6 173642. 2955.62   1
   6   6   6 173889. 3034.27   1
   1   1   7 26061.9 923.960   1
   1  -1   7 28675.0 900.210   1
  -1  -1   7 28497.0 812.336   1
  -1  -1  -7 27637.8 907.605   1
  -1   1   7 31622.7 956.949   1
  -1   1  -7 27047.8 910.090   1
   1  -1  -7 29516.7 873.282   1
   1   1  -7 27912.1 757.104   1
   3   1   7 63034.1 1590.71   1
  -7  -3  -1 62842.2 1467.67   1
  -7  -3   1 62962.2 1277.26   1
  -3  -1  -7 61820.0 1515.67   1
   1   3  -7 65530.7 1198.39   1
  -3   1  -7 68497.5 1710.10   1
  -1  -3  -7 61682.9 1438.13   1
   1   3   7 66583.0 1588.58   1
  -3  -1   7 65343.1 1034.70   1
   3  -1   7 66703.8 1537.72   1
   7   3   1 64279.7 1394.03   1
   3   3  -7 227770. 1509.55   1
  -3  -3  -7 228312. 2941.17   1
  -7  -3   3 228178. 1952.80   1
  -7  -3  -3 230554. 3159.92   1
   7   3   3 235043. 2991.53   1
   3   3   7 237799. 3158.91   1
   5   7   1 6068.23 426.379   1
  -7  -1  -5 5068.23 535.136   1
   7   5  -1 7479.03 446.357   1
   7   5   1 6936.07 495.287   1
  -5  -1   7 6336.80 290.207   1
  -5  -1  -7 5858.86 558.249   1
   5   7  -1 5995.51 381.749   1
   5   1   7 6119.63 535.739   1
  -7  -5  -1 6799.71 481.969   1
  -7  -5   1 7104.56 421.683   1
   3   5  -7 13186.1 424.113   1
  -5  -3  -7 14860.4 842.053   1
   7   5   3 15608.7 826.769   1
   7   5  -3 16298.8 517.471   1
   5   3   7 15689.9 891.754   1
  -7  -5   3 13656.4 448.067   1
   7   3   5 13414.0 818.289   1
  -7  -3   5 11516.3 308.246   1
  -7  -3  -5 13816.3 865.993   1
   5   7   3 14456.4 748.289   1
   3   5   7 15065.9 840.755   1
  -3  -5  -7 14692.4 792.217   1
  -7  -5  -3 14891.7 784.102   1
  -7  -5  -5 4720.84 492.132   1
   7   5   5 4744.38 515.516   1
   5   5   7 5611.22 546.022   1
  -5  -5  -7 5161.67 517.527   1
   5   7   5 4362.58 479.411   1
  -5  -7  -5 5150.92 531.178   1
   7   7  -1 87392.9 1644.11   1
   7   7   1 87580.9 1916.57   1
  -7  -7  -1 85111.1 1781.33   1
   7   7  -3 99469.2 1454.37   1
   7   7   3 103861. 2223.35   1
  -7  -7  -3 99134.1 2076.60   1
   7   3   7 96291.8 2387.12   1
   7   7  -5 16335.9 462.016   1
   7   5   7 17664.6 1074.26   1
   7   7   5 18827.8 1031.07   1
  -7  -5  -7 17564.1 1000.61   1
   5   7   7 17630.1 1031.39   1
  -7  -7  -5 19462.6 1008.73   1
  -5  -7  -7 18953.3 1079.59   1
   7   7   7 118644. 2765.03   1
  -7  -7  -7 122903. 2714.57   1
   0   2   8 20.7179 113.015   1
  -2  -2  -8 14054.1 736.502   1
   2   2   8 14218.3 782.676   1
  -2   2   8 15227.7 713.808   1
  -8  -2  -2 15236.9 930.228   1
   2   2  -8 14605.6 525.970   1
  -2   2  -8 16565.2 879.702   1
  -2  -2   8 16548.5 581.590   1
  -4  -2   8 21371.8 561.440   1
   4   2   8 22109.3 1084.62   1
   8   2   4 18223.5 941.786   1
  -8  -2  -4 20601.8 1107.91   1
   2   4  -8 20161.8 652.859   1
   8   4   2 20529.2 914.075   1
  -8  -4  -2 19005.3 918.929   1
  -8  -4   2 20790.5 727.153   1
   2   4   8 20798.6 1001.22   1
  -2  -4  -8 20299.1 932.924   1
  -4  -2  -8 22303.9 1047.21   1
   8   4   4 181860. 3050.92   1
  -4  -4  -8 186033. 3033.32   1
   4   4   8 184354. 3103.66   1
  -8  -4  -4 179312. 3054.25   1
  -8  -4   4 182255. 1643.30   1
   8   6   0 26.9449 114.693   1
   6   8   0 19.1426 113.650   1
   8   6  -2 6554.74 432.916   1
   8   6   2 6759.74 580.571   1
  -8  -2  -6 5314.57 606.605   1
   6   2   8 5865.15 612.936   1
  -8  -6  -2 6896.96 559.627   1
  -6  -2   8 5736.88 235.916   1
  -6  -2  -8 5468.21 577.482   1
  -8  -6   2 5469.75 359.962   1
   6   8   2 5834.89 496.586   1
   8   2   6 5920.11 577.780   1
  -8  -6  -4 11539.3 775.281   1
   8   4   6 10352.3 826.826   1
   6   4   8 11239.7 865.850   1
   8   6   4 13261.1 885.619   1
   4   6   8 10850.1 787.426   1
   6   8   4 9988.74 717.318   1
  -8  -4  -6 10801.3 871.473   1
  -4  -6  -8 10568.4 759.400   1
  -6  -4  -8 10943.7 810.738   1
  -6  -8  -6 14624.7 1035.00   1
   8   6   6 12981.7 938.229   1
  -8  -6  -6 13028.5 905.073   1
   6   6   8 12259.6 885.262   1
  -6  -6  -8 13731.0 901.201   1
   6   8   6 11648.3 819.518   1
   6   8  -6 10590.7 404.683   1
   8   8   0 98498.3 2011.43   1
   8   8  -2 41108.4 1112.15   1
   8   8   2 42173.9 1456.85   1
  -8  -2  -8 36196.6 1714.09   1
   8   2   8 36232.9 1539.92   1
  -8  -8  -2 41731.5 1438.44   1
   8   8  -4 134446. 1767.44   1
   8   8   4 129680. 2727.23   1
  -8  -4  -8 125816. 3034.61   1
  -8  -8  -4 129712. 2692.81   1
  -8  -6  -8 22619.4 1264.88   1
  -8  -8  -6 24858.5 1287.90   1
  -1  -1   9 106457. 1836.06   1
   1   1  -9 106235. 1727.50   1
   1   1   9 107275. 2177.79   1
  -1  -1  -9 107686. 2056.10   1
  -1   1   9 110026. 2064.53   1
  -1   1  -9 110624. 2101.27   1
   1  -1   9 108044. 2012.37   1
   1  -1  -9 108388. 1958.60   1
  -3  -1   9 51799.8 1120.86   1
  -9  -3   1 49759.4 1470.80   1
  -3   1  -9 49131.9 1619.42   1
   3  -1   9 51260.0 1552.77   1
   3   1   9 50814.3 1630.46   1
   1   3  -9 51885.6 1249.38   1
   1   3   9 53418.2 1638.16   1
  -3   1   9 48426.0 1254.73   1
  -1  -3  -9 51242.3 1492.65   1
  -3  -1  -9 51447.4 1616.54   1
  -9  -3  -1 50666.6 1664.53   1
  -1   3  -9 56029.1 1606.35   1
  -1   3   9 51763.0 1550.09   1
   9   3   3 576.466 218.629   1
   3   3  -9 1004.71 136.735   1
  -9  -3   3 1027.39 209.070   1
   3   3   9 1069.43 275.479   1
  -3  -3  -9 878.918 243.696   1
  -9  -3  -3 858.000 272.868   1
   9   5   1 91014.9 1921.48   1
  -5  -1   9 93660.5 1382.06   1
  -5  -1  -9 87825.1 2364.54   1
  -9  -5  -1 91238.0 2024.68   1
   9   5  -1 90085.8 1697.90   1
  -9  -5   1 93012.4 1772.29   1
   5   1   9 91195.9 2270.95   1
   9   5   3 33991.3 1350.11   1
  -5  -3  -9 36840.7 1498.05   1
   5   3   9 36729.1 1527.69   1
  -9  -3   5 34374.3 839.938   1
  -9  -3  -5 35468.4 1647.90   1
   3   5   9 37357.2 1518.83   1
   3   5  -9 32966.9 757.293   1
  -9  -5   3 36792.0 897.216   1
  -3  -5  -9 35326.4 1361.58   1
  -9  -5  -3 37197.8 1448.83   1
   9   3   5 33567.4 1371.87   1
   9   5   5 146189. 3120.77   1
   5   5   9 142205. 3031.83   1
  -5  -5  -9 140587. 2910.29   1
  -9  -5  -5 146656. 3108.44   1
  -7  -1  -9 963.414 348.441   1
  -9  -7  -1 887.217 221.371   1
   7   1   9 807.816 261.727   1
   9   7  -1 1575.18 257.909   1
   7   9   1 1095.68 264.441   1
   9   7   1 1257.05 278.633   1
  -9  -7   1 1563.15 234.605   1
   9   7   3 4291.49 518.411   1
  -9  -3  -7 3683.28 585.194   1
   9   3   7 3188.32 488.133   1
   7   9   3 3238.42 435.630   1
  -9  -3   7 2349.65 139.109   1
   7   3   9 3697.96 568.933   1
  -9  -7  -3 4318.37 495.758   1
  -7  -3  -9 4030.29 566.245   1
   9   7  -3 4082.51 338.975   1
  -5  -7  -9 4288.99 586.258   1
   7   9   5 3465.13 491.269   1
  -7  -5  -9 2502.97 432.766   1
   7   9  -5 3692.54 318.737   1
  -9  -5  -7 4021.03 588.704   1
  -9  -7  -5 3574.41 515.918   1
   9   7   5 3986.10 573.261   1
   9   9  -1 59774.3 1567.32   1
   9   9   1 61899.9 1788.77   1
   9   9  -3 40854.0 1140.87   1
  -9  -9  -3 44712.1 1689.71   1
   9   9   3 42799.2 1604.63   1
  -9  -9  -5 77123.9 2350.43   1
   0   0  10 81.8674 137.275   1
   2   0  10 15985.9 927.112   1
   2   0 -10 14944.2 772.417   1
  -2   0  10 14446.4 700.809   1
   0   2  10 14956.4 871.555   1
   0   2 -10 16141.7 819.907   1
  -2   0 -10 16412.6 932.297   1
   0  -2 -10 15620.1 840.415   1
   0  -2  10 16634.9 802.521   1
   2   2  10 192305. 3289.71   1
  -2  -2 -10 190885. 3154.60   1
  -2   2 -10 196501. 3211.34   1
   2   2 -10 201338. 2309.28   1
  -2   2  10 208800. 3091.19   1
  -2  -2  10 201539. 2377.02   1
   0   4  10 109.071 181.892   1
   0   4 -10 210.538 154.605   1
   4   2  10 5260.47 628.411   1
 -10  -4   2 4996.31 467.935   1
   2   4  10 5979.86 645.488   1
 -10  -4  -2 4770.73 588.387   1
   2   4 -10 5783.42 417.351   1
  -2  -4 -10 5670.62 570.581   1
  -4  -2  10 5388.02 353.926   1
  -4  -2 -10 5725.76 630.523   1
 -10  -4   4 1440.79 217.709   1
 -10  -4  -4 2264.71 460.903   1
  10   4   4 1316.92 325.469   1
   4   4  10 742.575 277.439   1
  -4  -4 -10 2451.25 414.277   1
 -10  -6   0 11638.0 694.519   1
  10   6   0 10778.3 693.910   1
  -6   0 -10 10348.8 944.540   1
 -10  -6  -2 96082.0 2265.70   1
  -6  -2  10 95489.4 1266.32   1
 -10  -6   2 99931.8 1765.41   1
  -6  -2 -10 94663.2 2742.18   1
  10   6   2 92043.2 2175.17   1
   6   2  10 95343.9 2650.65   1
  10   6   4 39422.4 1637.61   1
 -10  -6  -4 44574.3 1718.29   1
   4   6 -10 37923.3 677.001   1
  -6  -4 -10 40297.9 1663.38   1
 -10  -4  -6 42365.0 1934.16   1
 -10  -6   4 38635.4 873.840   1
  -4  -6 -10 42238.5 1691.75   1
 -10  -4   6 35463.0 701.290   1
  10   4   6 38687.0 1683.13   1
 -10  -6  -6 49488.6 1966.25   1
 -10  -8   0 101.788 144.429   1
   8  10   0 20.9232 191.679   1
  10   8   0 66.8833 133.634   1
   8  10  -2 77.9877 206.626   1
   8  10   2 2.89074 207.129   1
  10   8  -2 182.250 147.160   1
 -10  -8  -2 162.848 171.710   1
  10   8   2 30.1749 181.434   1
  -8  -2  10 60.3062 54.0139   1
 -10  -8  -4 3249.97 479.180   1
   8  10  -4 4180.22 433.653   1
  10   8   4 2812.88 496.458   1
   8  10  -6 6347.72 332.454   1
  10  10   0 77152.0 2080.83   1
  10  10  -2 26219.4 1056.13   1
  10  10   2 26341.8 1341.34   1
  10  10  -4 21301.1 803.931   1
  -1  -1  11 70289.0 1696.76   1
   1  -1 -11 72229.1 1846.80   1
   1   1  11 68132.7 1947.52   1
  -1   1  11 68022.7 1743.87   1
  -1  -1 -11 71270.1 1897.14   1
   1   1 -11 71481.9 1622.01   1
  -1   1 -11 69274.8 1857.26   1
   1  -1  11 69586.5 1803.86   1
  -3  -1 -11 60551.3 1996.26   1
   3   1  11 58891.5 1992.12   1
  -3  -1  11 59108.0 1411.84   1
   1   3  11 58567.3 1882.71   1
  -1   3 -11 57660.5 1720.26   1
  -3   1  11 57001.0 1542.13   1
  -3   1 -11 54649.5 1851.29   1
  -1   3  11 59588.7 1841.88   1
   3  -1  11 61803.9 1900.33   1
  -1  -3 -11 56052.1 1766.03   1
   1   3 -11 63587.9 1523.38   1
   3   3  11 80980.0 2379.49   1
  -3  -3 -11 83718.9 2323.89   1
   3   3 -11 86740.6 1494.01   1
  -5  -1  11 3633.07 333.317   1
   5   1  11 3910.71 538.314   1
   1   5  11 3529.87 564.904   1
  -5  -1 -11 3007.63 528.251   1
 -11  -5  -1 3862.36 517.668   1
 -11  -5   1 4254.17 474.338   1
  -5   1 -11 3587.32 636.390   1
   3   5 -11 22981.6 684.203   1
  -5  -3 -11 21779.8 1281.48   1
 -11  -5  -3 25118.2 1406.26   1
 -11  -5   3 23094.3 895.962   1
  11   5   3 19513.0 1120.29   1
  -3  -5 -11 25193.9 1315.86   1
 -11  -5   5 16575.1 581.909   1
 -11  -5  -5 18520.8 1364.47   1
  11   7  -1 56671.1 1583.53   1
 -11  -7  -1 56171.6 1673.75   1
  -7  -1  11 57852.7 1204.70   1
 -11  -7   1 54532.6 1476.30   1
  11   7   1 53642.8 1642.87   1
 -11  -7   3 70225.7 1431.72   1
  11   7   3 66977.5 2113.28   1
 -11  -7  -5 3760.93 633.460   1
  11   9  -1 2356.59 366.630   1
 -11  -9  -1 3081.86 433.931   1
  11   9   1 1970.28 382.976   1
 -11  -9  -3 789.495 289.125   1
  11  11  -1 13019.0 883.703   1
  11  11   1 13877.9 1068.55   1
   0   0  12 50397.6 1641.76   1
   0   0 -12 50818.8 1543.63   1
  -2   0 -12 16.9273 176.952   1
   2   0  12 2.82470 189.819   1
   0  -2 -12 33.0746 185.181   1
  -2   0  12 150.030 166.174   1
   0   2  12 176.027 200.002   1
  -2   2  12 1862.12 342.770   1
  -2  -2  12 2555.27 331.294   1
  -2   2 -12 1925.12 376.657   1
   2   2 -12 2570.16 296.554   1
   2   2  12 2242.30 436.358   1
  -2  -2 -12 2379.91 434.108   1
  -4   0  12 83958.7 1802.18   1
   0   4 -12 85542.6 2042.94   1
   0   4  12 80626.5 2453.80   1
   4   0  12 85885.1 2467.26   1
   2   4 -12 17018.1 728.496   1
  -4  -2 -12 16854.8 1137.98   1
   2   4  12 17329.9 1160.05   1
 -12  -4  -2 19295.6 1437.73   1
  -4  -2  12 17762.5 751.055   1
  -2  -4 -12 18452.2 1148.79   1
 -12  -4  -4 52559.3 2515.28   1
  -6   0  12 7.93258 130.421   1
 -12  -6   2 202.796 163.928   1
   2   6 -12 390.400 155.271   1
 -12  -6  -2 262.012 234.176   1
 -12  -6   4 9449.21 534.324   1
 -12  -6  -4 9098.46 940.704   1
 -12  -8   0 22109.7 1044.99   1
  12   8   0 23308.8 1114.70   1
 -12  -8  -2 37109.7 1528.01   1
 -12  -8   2 37225.7 1240.11   1
 -12 -10  -2 285.709 320.132   1
  12  10  -2 130.463 172.339   1
  12  12   0 101.046 541.235   1
   1   1  13 51915.5 1873.67   1
  -1   1 -13 57176.8 1819.00   1
  -1   1  13 54521.5 1739.15   1
   1  -1 -13 54651.3 1849.64   1
  -1  -1 -13 59216.7 1869.27   1
   1   1 -13 55381.9 1522.07   1
   1  -1  13 55233.1 1776.25   1
  -1  -1  13 56930.6 1665.19   1
  -3  -1  13 22453.4 1013.43   1
  -1  -3 -13 22196.2 1288.31   1
   1   3 -13 22094.6 964.233   1
  -3  -1 -13 21341.2 1281.29   1
   1   3  13 19237.1 1195.99   1
  -3   1  13 20498.0 1015.00   1
  -1   3  13 20332.8 1219.89   1
  -1   3 -13 21092.6 1143.55   1
  -3   1 -13 21182.0 1295.87   1
   3  -1  13 21509.8 1215.08   1
   3   1  13 19108.2 1245.85   1
  -3  -3 -13 40949.5 1777.14   1
  -5  -1  13 61321.2 1549.59   1
  -5   1 -13 54021.2 2425.62   1
 -13  -5  -1 58732.0 2242.62   1
 -13  -5   1 59507.9 2044.78   1
   1   5 -13 60217.2 1683.66   1
   3   5 -13 33567.4 957.118   1
 -13  -5  -3 33580.0 1963.15   1
 -13  -5   3 32474.6 1332.10   1
 -13  -7  -1 8375.59 748.736   1
 -13  -7   1 10327.1 744.701   1
 -13  -7   3 1963.46 292.407   1
 -13  -7  -3 1807.65 467.783   1
 -13  -9   1 34963.8 1394.83   1
 -13  -9  -1 34192.8 1439.72   1
  13  11  -1 180.843 214.842   1
  -2   0  14 6190.26 612.271   1
   0  -2 -14 5810.72 714.239   1
   0   2  14 5121.58 616.385   1
  -2   0 -14 5836.00 683.313   1
   0   2 -14 6092.24 584.029   1
   2   0  14 5753.53 661.586   1
  -2   2  14 22200.8 1186.12   1
  -2  -2 -14 25758.0 1387.14   1
  -2   2 -14 24652.6 1365.22   1
   2   2 -14 26287.7 1062.64   1
   0   4 -14 80.7138 198.956   1
   2   4 -14 241.841 174.615   1
 -14  -6   0 34989.9 1705.88   1
 -14  -6  -2 12971.7 1199.10   1
 -14  -6   2 13679.1 953.775   1
 -14 -10   0 30324.5 1511.50   1
  -1   1  15 21266.7 1258.45   1
  -1   1 -15 24088.0 1328.69   1
  -1  -1 -15 23553.5 1294.56   1
   1   1 -15 24700.3 1149.88   1
   1  -1  15 22010.5 1255.87   1
  -1  -1  15 24160.3 1213.74   1
  -1   3 -15 30599.6 1514.35   1
   1   3 -15 30979.3 1263.73   1
  -3  -1  15 28426.8 1223.09   1
 -15  -7  -1 19265.3 1357.01   1
   0   0 -16 23027.0 1264.40   1
  -2   0  16 3.33068 258.734   1
   2   2 -16 280.556 315.531   1
   1   1 -17 29470.4 1523.08   1
   0   0   0    0.00    0.00   0
TITL marseno_013 in Fd-3m
REM Fd-3m (#227 in standard setting)
CELL 0.41427  10.287591  10.287591  10.287591  90.0000  90.0000  90.0000
ZERR    5.00   0.000370   0.000370   0.000370   0.0000   0.0000   0.0000
LATT  4
SYMM -x+3/4,-y+1/4, z+1/2
SYMM -x+1/4, y+1/2,-z+3/4
SYMM  x+1/2,-y+3/4,-z+1/4
SYMM  z, x, y
SYMM  z+1/2,-x+3/4,-y+1/4
SYMM -z+3/4,-x+1/4, y+1/2
SYMM -z+1/4, x+1/2,-y+3/4
SYMM  y, z, x
SYMM -y+1/4, z+1/2,-x+3/4
SYMM  y+1/2,-z+3/4,-x+1/4
SYMM -y+3/4,-z+1/4, x+1/2
SYMM  y+3/4, x+1/4,-z+1/2
SYMM -y,-x,-z
SYMM  y+1/4,-x+1/2, z+3/4
SYMM -y+1/2, x+3/4, z+1/4
SYMM  x+3/4, z+1/4,-y+1/2
SYMM -x+1/2, z+3/4, y+1/4
SYMM -x,-z,-y
SYMM  x+1/4,-z+1/2, y+3/4
SYMM  z+3/4, y+1/4,-x+1/2
SYMM  z+1/4,-y+1/2, x+3/4
SYMM -z+1/2, y+3/4, x+1/4
SYMM -z,-y,-x
SFAC O As
UNIT 30.00 20.00
TREF
HKLF 4
END
;
_shelx_hkl_checksum              23592
_shelx_shelxl_version_number     2014/7
loop_
_space_group_symop_operation_xyz
'x, y, z'
'-x+3/4, -y+1/4, z+1/2'
'-x+1/4, y+1/2, -z+3/4'
'x+1/2, -y+3/4, -z+1/4'
'z, x, y'
'z+1/2, -x+3/4, -y+1/4'
'-z+3/4, -x+1/4, y+1/2'
'-z+1/4, x+1/2, -y+3/4'
'y, z, x'
'-y+1/4, z+1/2, -x+3/4'
'y+1/2, -z+3/4, -x+1/4'
'-y+3/4, -z+1/4, x+1/2'
'y+3/4, x+1/4, -z+1/2'
'-y, -x, -z'
'y+1/4, -x+1/2, z+3/4'
'-y+1/2, x+3/4, z+1/4'
'x+3/4, z+1/4, -y+1/2'
'-x+1/2, z+3/4, y+1/4'
'-x, -z, -y'
'x+1/4, -z+1/2, y+3/4'
'z+3/4, y+1/4, -x+1/2'
'z+1/4, -y+1/2, x+3/4'
'-z+1/2, y+3/4, x+1/4'
'-z, -y, -x'
'x, y+1/2, z+1/2'
'-x+3/4, -y+3/4, z+1'
'-x+1/4, y+1, -z+5/4'
'x+1/2, -y+5/4, -z+3/4'
'z, x+1/2, y+1/2'
'z+1/2, -x+5/4, -y+3/4'
'-z+3/4, -x+3/4, y+1'
'-z+1/4, x+1, -y+5/4'
'y, z+1/2, x+1/2'
'-y+1/4, z+1, -x+5/4'
'y+1/2, -z+5/4, -x+3/4'
'-y+3/4, -z+3/4, x+1'
'y+3/4, x+3/4, -z+1'
'-y, -x+1/2, -z+1/2'
'y+1/4, -x+1, z+5/4'
'-y+1/2, x+5/4, z+3/4'
'x+3/4, z+3/4, -y+1'
'-x+1/2, z+5/4, y+3/4'
'-x, -z+1/2, -y+1/2'
'x+1/4, -z+1, y+5/4'
'z+3/4, y+3/4, -x+1'
'z+1/4, -y+1, x+5/4'
'-z+1/2, y+5/4, x+3/4'
'-z, -y+1/2, -x+1/2'
'x+1/2, y, z+1/2'
'-x+5/4, -y+1/4, z+1'
'-x+3/4, y+1/2, -z+5/4'
'x+1, -y+3/4, -z+3/4'
'z+1/2, x, y+1/2'
'z+1, -x+3/4, -y+3/4'
'-z+5/4, -x+1/4, y+1'
'-z+3/4, x+1/2, -y+5/4'
'y+1/2, z, x+1/2'
'-y+3/4, z+1/2, -x+5/4'
'y+1, -z+3/4, -x+3/4'
'-y+5/4, -z+1/4, x+1'
'y+5/4, x+1/4, -z+1'
'-y+1/2, -x, -z+1/2'
'y+3/4, -x+1/2, z+5/4'
'-y+1, x+3/4, z+3/4'
'x+5/4, z+1/4, -y+1'
'-x+1, z+3/4, y+3/4'
'-x+1/2, -z, -y+1/2'
'x+3/4, -z+1/2, y+5/4'
'z+5/4, y+1/4, -x+1'
'z+3/4, -y+1/2, x+5/4'
'-z+1, y+3/4, x+3/4'
'-z+1/2, -y, -x+1/2'
'x+1/2, y+1/2, z'
'-x+5/4, -y+3/4, z+1/2'
'-x+3/4, y+1, -z+3/4'
'x+1, -y+5/4, -z+1/4'
'z+1/2, x+1/2, y'
'z+1, -x+5/4, -y+1/4'
'-z+5/4, -x+3/4, y+1/2'
'-z+3/4, x+1, -y+3/4'
'y+1/2, z+1/2, x'
'-y+3/4, z+1, -x+3/4'
'y+1, -z+5/4, -x+1/4'
'-y+5/4, -z+3/4, x+1/2'
'y+5/4, x+3/4, -z+1/2'
'-y+1/2, -x+1/2, -z'
'y+3/4, -x+1, z+3/4'
'-y+1, x+5/4, z+1/4'
'x+5/4, z+3/4, -y+1/2'
'-x+1, z+5/4, y+1/4'
'-x+1/2, -z+1/2, -y'
'x+3/4, -z+1, y+3/4'
'z+5/4, y+3/4, -x+1/2'
'z+3/4, -y+1, x+3/4'
'-z+1, y+5/4, x+1/4'
'-z+1/2, -y+1/2, -x'
'-x, -y, -z'
'x-3/4, y-1/4, -z-1/2'
'x-1/4, -y-1/2, z-3/4'
'-x-1/2, y-3/4, z-1/4'
'-z, -x, -y'
'-z-1/2, x-3/4, y-1/4'
'z-3/4, x-1/4, -y-1/2'
'z-1/4, -x-1/2, y-3/4'
'-y, -z, -x'
'y-1/4, -z-1/2, x-3/4'
'-y-1/2, z-3/4, x-1/4'
'y-3/4, z-1/4, -x-1/2'
'-y-3/4, -x-1/4, z-1/2'
'y, x, z'
'-y-1/4, x-1/2, -z-3/4'
'y-1/2, -x-3/4, -z-1/4'
'-x-3/4, -z-1/4, y-1/2'
'x-1/2, -z-3/4, -y-1/4'
'x, z, y'
'-x-1/4, z-1/2, -y-3/4'
'-z-3/4, -y-1/4, x-1/2'
'-z-1/4, y-1/2, -x-3/4'
'z-1/2, -y-3/4, -x-1/4'
'z, y, x'
'-x, -y+1/2, -z+1/2'
'x-3/4, y+1/4, -z'
'x-1/4, -y, z-1/4'
'-x-1/2, y-1/4, z+1/4'
'-z, -x+1/2, -y+1/2'
'-z-1/2, x-1/4, y+1/4'
'z-3/4, x+1/4, -y'
'z-1/4, -x, y-1/4'
'-y, -z+1/2, -x+1/2'
'y-1/4, -z, x-1/4'
'-y-1/2, z-1/4, x+1/4'
'y-3/4, z+1/4, -x'
'-y-3/4, -x+1/4, z'
'y, x+1/2, z+1/2'
'-y-1/4, x, -z-1/4'
'y-1/2, -x-1/4, -z+1/4'
'-x-3/4, -z+1/4, y'
'x-1/2, -z-1/4, -y+1/4'
'x, z+1/2, y+1/2'
'-x-1/4, z, -y-1/4'
'-z-3/4, -y+1/4, x'
'-z-1/4, y, -x-1/4'
'z-1/2, -y-1/4, -x+1/4'
'z, y+1/2, x+1/2'
'-x+1/2, -y, -z+1/2'
'x-1/4, y-1/4, -z'
'x+1/4, -y-1/2, z-1/4'
'-x, y-3/4, z+1/4'
'-z+1/2, -x, -y+1/2'
'-z, x-3/4, y+1/4'
'z-1/4, x-1/4, -y'
'z+1/4, -x-1/2, y-1/4'
'-y+1/2, -z, -x+1/2'
'y+1/4, -z-1/2, x-1/4'
'-y, z-3/4, x+1/4'
'y-1/4, z-1/4, -x'
'-y-1/4, -x-1/4, z'
'y+1/2, x, z+1/2'
'-y+1/4, x-1/2, -z-1/4'
'y, -x-3/4, -z+1/4'
'-x-1/4, -z-1/4, y'
'x, -z-3/4, -y+1/4'
'x+1/2, z, y+1/2'
'-x+1/4, z-1/2, -y-1/4'
'-z-1/4, -y-1/4, x'
'-z+1/4, y-1/2, -x-1/4'
'z, -y-3/4, -x+1/4'
'z+1/2, y, x+1/2'
'-x+1/2, -y+1/2, -z'
'x-1/4, y+1/4, -z-1/2'
'x+1/4, -y, z-3/4'
'-x, y-1/4, z-1/4'
'-z+1/2, -x+1/2, -y'
'-z, x-1/4, y-1/4'
'z-1/4, x+1/4, -y-1/2'
'z+1/4, -x, y-3/4'
'-y+1/2, -z+1/2, -x'
'y+1/4, -z, x-3/4'
'-y, z-1/4, x-1/4'
'y-1/4, z+1/4, -x-1/2'
'-y-1/4, -x+1/4, z-1/2'
'y+1/2, x+1/2, z'
'-y+1/4, x, -z-3/4'
'y, -x-1/4, -z-1/4'
'-x-1/4, -z+1/4, y-1/2'
'x, -z-1/4, -y-1/4'
'x+1/2, z+1/2, y'
'-x+1/4, z, -y-3/4'
'-z-1/4, -y+1/4, x-1/2'
'-z+1/4, y, -x-3/4'
'z, -y-1/4, -x-1/4'
'z+1/2, y+1/2, x'
loop_
_atom_site_label
_atom_site_type_symbol
_atom_site_fract_x
_atom_site_fract_y
_atom_site_fract_z
_atom_site_U_iso_or_equiv
_atom_site_adp_type
_atom_site_occupancy
_atom_site_site_symmetry_order
_atom_site_calc_flag
_atom_site_refinement_flags_posn
_atom_site_refinement_flags_adp
_atom_site_refinement_flags_occupancy
As1 As 0.26322(6) 0.26322(6) 0.26322(6) 0.0111(4) Uani 1 6 d S T P
O1 O 0.3750 0.3750 0.1891(5) 0.0110(9) Uani 1 4 d S T P
loop_
_atom_site_aniso_label
_atom_site_aniso_U_11
_atom_site_aniso_U_22
_atom_site_aniso_U_33
_atom_site_aniso_U_23
_atom_site_aniso_U_13
_atom_site_aniso_U_12
As1 0.0111(4) 0.0111(4) 0.0111(4) -0.00049(18) -0.00049(18) -0.00049(18)
O1 0.0123(14) 0.0123(14) 0.008(2) 0.000 0.000 0.0000(18)
loop_
_atom_type_symbol
_atom_type_description
_atom_type_scat_dispersion_real
_atom_type_scat_dispersion_imag
_atom_type_scat_source
O O 0.0020 0.0020 'International Tables Vol C Tables 4.2.6.8 and 6.1.1.4'
As As 0.3110 0.7990 'International Tables Vol C Tables 4.2.6.8 and 6.1.1.4'
loop_
_geom_angle_atom_site_label_1
_geom_angle_atom_site_label_2
_geom_angle_atom_site_label_3
_geom_angle
_geom_angle_site_symmetry_1
_geom_angle_site_symmetry_3
O1 As1 O1 97.70(18) . 9
O1 As1 O1 97.70(18) 9 5
O1 As1 O1 97.70(18) . 5
As1 O1 As1 129.7(3) 26_554 .
loop_
_geom_bond_atom_site_label_1
_geom_bond_atom_site_label_2
_geom_bond_distance
_geom_bond_site_symmetry_2
As1 O1 1.796(2) .
As1 O1 1.796(2) 5
As1 O1 1.796(2) 9
O1 As1 1.796(2) 26_554
