#------------------------------------------------------------------------------
#$Date: 2015-09-04 08:12:49 +0300 (Fri, 04 Sep 2015) $
#$Revision: 153928 $
#$URL: svn://www.crystallography.net/cod/cif/4/51/35/4513569.cif $
#------------------------------------------------------------------------------
#
# This file is available in the Crystallography Open Database (COD),
# http://www.crystallography.net/
#
# All data on this site have been placed in the public domain by the
# contributors.
#
data_4513569
loop_
_publ_author_name
'Gu\'nka, Piotr A.'
'Dziubek, Kamil F.'
'G\/ladysiak, Andrzej'
'Dranka, Maciej'
'Piechota, Jacek'
'Hanfland, Michael'
'Katrusiak, Andrzej'
'Zachara, Janusz'
_publ_section_title
;
 Compressed Arsenolite As4O6and Its Helium Clathrate As4O6&#x00B7;2He
;
_journal_issue                   8
_journal_name_full               'Crystal Growth &amp; Design'
_journal_page_first              3740
_journal_paper_doi               10.1021/acs.cgd.5b00390
_journal_volume                  15
_journal_year                    2015
_chemical_formula_moiety         'As4 O6'
_chemical_formula_sum            'As4 O6'
_chemical_formula_weight         395.68
_chemical_name_common            arsenolite
_space_group_crystal_system      cubic
_space_group_IT_number           227
_space_group_name_Hall           '-F 4vw 2vw 3'
_space_group_name_H-M_alt        'F d -3 m'
_symmetry_space_group_name_Hall  '-F 4vw 2vw 3'
_symmetry_space_group_name_H-M   'F d -3 m :2'
_atom_sites_solution_primary     direct
_audit_creation_date             2014-10-15
_audit_creation_method
;
Olex2 1.2-beta
(compiled 2014.09.19 svn.r3010 for OlexSys, GUI svn.r4874)
;
_cell_angle_alpha                90
_cell_angle_beta                 90
_cell_angle_gamma                90
_cell_formula_units_Z            8
_cell_length_a                   10.75596(10)
_cell_length_b                   10.75596(10)
_cell_length_c                   10.75596(10)
_cell_measurement_pressure       1.26e6(6)
_cell_measurement_reflns_used    375
_cell_measurement_temperature    293(2)
_cell_measurement_theta_max      20.2960
_cell_measurement_theta_min      1.9120
_cell_volume                     1244.36(2)
_computing_cell_refinement
;
CrysAlisPro, Agilent Technologies,
Version 1.171.37.34 (release 22-05-2014 CrysAlis171 .NET)
(compiled May 22 2014,16:03:01)
;
_computing_data_collection
;
CrysAlisPro, Agilent Technologies,
Version 1.171.37.34 (release 22-05-2014 CrysAlis171 .NET)
(compiled May 22 2014,16:03:01)
;
_computing_data_reduction
;
CrysAlisPro, Agilent Technologies,
Version 1.171.37.34 (release 22-05-2014 CrysAlis171 .NET)
(compiled May 22 2014,16:03:01)
;
_computing_molecular_graphics    'Olex2 (Dolomanov et al., 2009)'
_computing_publication_material  'Olex2 (Dolomanov et al., 2009)'
_computing_structure_refinement  'ShelXL (Sheldrick, 2008)'
_computing_structure_solution    'ShelXT (Sheldrick, 2008)'
_diffrn_ambient_environment      He
_diffrn_ambient_pressure         1.26e6(6)
_diffrn_ambient_temperature      293(2)
_diffrn_detector                 'CCD plate'
_diffrn_measured_fraction_theta_full 0.918
_diffrn_measured_fraction_theta_max 0.687
_diffrn_measurement_details
;
  1 phi    148.00  212.00   0.5000    1.0000
omega____ theta____ kappa____ phi______ frames
   0.0000    0.0000    0.0000     -     128
;
_diffrn_measurement_device       'abstract diffractometer'
_diffrn_measurement_device_type
'MAR-CrysAlisPro-abstract goniometer: imported MAR images'
_diffrn_measurement_method       '\p scans'
_diffrn_orient_matrix_UB_11      -0.0225297000
_diffrn_orient_matrix_UB_12      -0.0312340000
_diffrn_orient_matrix_UB_13      0.0009860000
_diffrn_orient_matrix_UB_21      0.0214024000
_diffrn_orient_matrix_UB_22      -0.0145345000
_diffrn_orient_matrix_UB_23      0.0285178000
_diffrn_orient_matrix_UB_31      -0.0227584000
_diffrn_orient_matrix_UB_32      0.0172283000
_diffrn_orient_matrix_UB_33      0.0258620000
_diffrn_radiation_monochromator  synchrotron
_diffrn_radiation_probe          x-ray
_diffrn_radiation_wavelength     0.41427
_diffrn_reflns_av_R_equivalents  0.0307
_diffrn_reflns_av_unetI/netI     0.0194
_diffrn_reflns_laue_measured_fraction_full 0.918
_diffrn_reflns_laue_measured_fraction_max 0.687
_diffrn_reflns_limit_h_max       15
_diffrn_reflns_limit_h_min       -14
_diffrn_reflns_limit_k_max       12
_diffrn_reflns_limit_k_min       -10
_diffrn_reflns_limit_l_max       18
_diffrn_reflns_limit_l_min       -17
_diffrn_reflns_number            613
_diffrn_reflns_point_group_measured_fraction_full 0.918
_diffrn_reflns_point_group_measured_fraction_max 0.687
_diffrn_reflns_theta_full        14.392
_diffrn_reflns_theta_max         20.412
_diffrn_reflns_theta_min         1.911
_diffrn_source                   synchrotron
_exptl_absorpt_coefficient_mu    4.881
_exptl_absorpt_correction_T_max  1.00000
_exptl_absorpt_correction_T_min  0.66149
_exptl_absorpt_correction_type   multi-scan
_exptl_absorpt_process_details
;
CrysAlisPro, Agilent Technologies,
Version 1.171.37.34 (release 22-05-2014 CrysAlis171 .NET)
(compiled May 22 2014,16:03:01)
Empirical absorption correction using spherical harmonics,
 implemented in SCALE3 ABSPACK scaling algorithm.
;
_exptl_crystal_density_diffrn    4.224
_exptl_crystal_description       block
_exptl_crystal_F_000             1440
_exptl_crystal_size_max          0.065
_exptl_crystal_size_mid          0.04
_exptl_crystal_size_min          0.02
_refine_diff_density_max         0.796
_refine_diff_density_min         -0.929
_refine_diff_density_rms         0.242
_refine_ls_extinction_method     none
_refine_ls_goodness_of_fit_ref   1.251
_refine_ls_hydrogen_treatment    undef
_refine_ls_matrix_type           full
_refine_ls_number_parameters     8
_refine_ls_number_reflns         125
_refine_ls_number_restraints     0
_refine_ls_restrained_S_all      1.251
_refine_ls_R_factor_all          0.0287
_refine_ls_R_factor_gt           0.0279
_refine_ls_shift/su_max          0.000
_refine_ls_shift/su_mean         0.000
_refine_ls_structure_factor_coef Fsqd
_refine_ls_weighting_details
'w=1/[\s^2^(Fo^2^)+(0.0450P)^2^+2.5980P] where P=(Fo^2^+2Fc^2^)/3'
_refine_ls_weighting_scheme      calc
_refine_ls_wR_factor_gt          0.0695
_refine_ls_wR_factor_ref         0.0707
_reflns_Friedel_coverage         0.000
_reflns_number_gt                119
_reflns_number_total             125
_reflns_threshold_expression     'I > 2\s(I)'
_cod_data_source_file            cg5b00390_si_002.cif
_cod_data_source_block           marseno_009
_cod_original_cell_volume        1244.37(4)
_cod_database_code               4513569
_shelx_space_group_comment
;
The symmetry employed for this shelxl refinement is uniquely defined
by the following loop, which should always be used as a source of
symmetry information in preference to the above space-group names.
They are only intended as comments.
;
_olex2_refinement_description
;
;
_shelx_res_file
;
    marseno_009.res created by SHELXL-2014/7

TITL marseno_009_a.res in Fd-3m
CELL 0.41427 10.755964 10.755964 10.755964 90 90 90
ZERR 8 0.000103 0.000103 0.000103 0 0 0
LATT 4
SYMM 0.75-X,0.25-Y,0.5+Z
SYMM 0.25-X,0.5+Y,0.75-Z
SYMM 0.5+X,0.75-Y,0.25-Z
SYMM +Z,+X,+Y
SYMM 0.5+Z,0.75-X,0.25-Y
SYMM 0.75-Z,0.25-X,0.5+Y
SYMM 0.25-Z,0.5+X,0.75-Y
SYMM +Y,+Z,+X
SYMM 0.25-Y,0.5+Z,0.75-X
SYMM 0.5+Y,0.75-Z,0.25-X
SYMM 0.75-Y,0.25-Z,0.5+X
SYMM 0.75+Y,0.25+X,0.5-Z
SYMM -Y,-X,-Z
SYMM 0.25+Y,0.5-X,0.75+Z
SYMM 0.5-Y,0.75+X,0.25+Z
SYMM 0.75+X,0.25+Z,0.5-Y
SYMM 0.5-X,0.75+Z,0.25+Y
SYMM -X,-Z,-Y
SYMM 0.25+X,0.5-Z,0.75+Y
SYMM 0.75+Z,0.25+Y,0.5-X
SYMM 0.25+Z,0.5-Y,0.75+X
SYMM 0.5-Z,0.75+Y,0.25+X
SYMM -Z,-Y,-X

SFAC O As
DISP As 0.311 0.799 1882.762
DISP O 0.002 0.002 10.067
UNIT 48 32

L.S. 10
PLAN  20
REM Old TITL marseno_009 in Fd-3m #227
BOND $H
LIST 6
fmap 2
ACTA
OMIT 4 4 4
REM <HKL>E:/X-Ray_Data_Backup/ESRF_id09_2014_10/data/arsenolite/arseno_009/str
REM uct/olex2_marseno_009/marseno_009.hkl</HKL>

WGHT    0.045000    2.598000
FVAR       1.49509
AS1   2    0.268757    0.268757    0.268757    10.16667    0.01226    0.01226 =
         0.01226   -0.00095   -0.00095   -0.00095
O1    1    0.375000    0.375000    0.196518    10.25000    0.01412    0.01412 =
         0.00982    0.00000    0.00000   -0.00090
HKLF 4

REM  marseno_009_a.res in Fd-3m
REM R1 =  0.0279 for     119 Fo > 4sig(Fo)  and  0.0287 for all     125 data
REM      8 parameters refined using      0 restraints

END

WGHT      0.0446      2.6090

REM Highest difference peak  0.796,  deepest hole -0.929,  1-sigma level  0.242
Q1    1   0.2702  0.2702  0.1818  10.50000  0.05    0.80
Q2    1   0.3750  0.3750  0.0742  10.25000  0.05    0.71
Q3    1   0.2400  0.1935  0.1935  10.50000  0.05    0.67
Q4    1   0.4113  0.4113  0.0949  10.50000  0.05    0.58
Q5    1   0.2500  0.4418  0.1918  10.50000  0.05    0.54
Q6    1   0.3826  0.4330  0.2766  11.00000  0.05    0.50
Q7    1   0.4383  0.2820  0.1981  11.00000  0.05    0.50
Q8    1   0.1906  0.1906  0.0594  10.16667  0.05    0.48
Q9    1   0.4328  0.4328  0.1467  10.50000  0.05    0.46
Q10   1   0.3785  0.3150  0.3150  10.50000  0.05    0.39
Q11   1   0.3966  0.3966  0.2917  10.50000  0.05    0.36
Q12   1   0.4725  0.3574  0.2052  11.00000  0.05    0.35
Q13   1   0.2151  0.0662  0.2151  10.50000  0.05    0.31
Q14   1   0.2427  0.2427  0.0421  10.50000  0.05    0.29
Q15   1   0.1250  0.1250  0.1250  10.04167  0.05    0.19
Q16   1   0.1443  0.3076  0.2187  11.00000  0.05    0.16
Q17   1   0.1250  0.1250  0.1897  10.25000  0.05    0.07
;
_shelx_res_checksum              74155
_shelx_hkl_file
;
  -1   1  -1 174645. 1852.45   1
   0   0   2 108.483 30.4001   1
   2   0   2 887.640 115.284   1
   2  -2   0 941.556 88.7096   1
  -2   2   0 1047.98 96.7232   1
  -2   0  -2 958.685 114.862   1
  -3   1  -1 4701.80 259.862   1
   1  -1   3 5154.55 283.996   1
  -1   1   3 5359.54 187.994   1
  -1   1  -3 5001.60 281.357   1
   3  -1   1 5105.34 268.135   1
   1   1   3 5092.89 261.545   1
   3  -3   1 201315. 2323.55   1
  -3   3   1 200877. 2073.37   1
  -3   3  -1 209616. 2429.87   1
  -1   3  -3 177456. 2418.08   1
   1  -3   3 182339. 2367.83   1
  -3   1  -3 203909. 2609.25   1
   3  -1   3 182924. 2493.81   1
  -3   3  -3 86008.3 1649.74   1
   3  -3   3 92514.5 1658.33   1
   2   0  -4 1.43058 10.2859   1
   0   2  -4 15.4417 22.1774   1
  -2   2  -4 59531.4 1264.41   1
  -4   2  -2 58095.7 1231.89   1
  -2   2   4 56413.3 716.268   1
   4  -2   2 57286.6 1217.04   1
   2  -2   4 57089.0 1208.73   1
  -4   4   2 38906.5 780.193   1
  -4   2  -4 46465.8 1251.76   1
  -4   4  -2 42393.6 1091.54   1
  -2   4  -4 45765.0 1172.56   1
   4  -2   4 42328.5 1179.54   1
   2  -4   4 45660.0 1150.33   1
   4  -4   2 43000.4 1057.25   1
  -4   4   4 279494. 2513.02   1
  -1   1  -5 83888.4 1529.83   1
   5  -1   1 83519.6 1500.68   1
   1  -1  -5 78283.2 1272.58   1
   1  -1   5 86606.7 1512.22   1
  -1  -1  -5 84570.2 1444.80   1
  -1   1   5 74859.8 1211.51   1
  -1  -1   5 84141.3 1346.16   1
   1   1   5 87786.0 1516.19   1
  -5   1  -3 31556.6 965.132   1
   5  -3   1 32657.3 909.497   1
  -1   3  -5 30907.3 940.112   1
   1  -3   5 30573.7 939.979   1
   5  -1   3 32649.9 1046.89   1
  -3   1  -5 33261.3 1017.78   1
   3   1   5 32403.4 995.057   1
  -5   3   1 31771.3 746.117   1
   5  -3  -1 32863.1 763.737   1
   3  -1   5 31933.9 1006.19   1
   3  -1  -5 32940.6 590.793   1
   5  -3  -3 6473.92 227.777   1
  -5   3  -3 5398.55 433.311   1
   3  -5   3 4984.25 380.420   1
  -3   3   5 5622.81 136.724   1
  -3   5  -3 5771.84 408.697   1
   5  -3   3 6182.60 435.926   1
   3  -3   5 5733.10 423.637   1
  -3   3  -5 6677.90 459.403   1
   5  -1   5 292201. 4157.92   1
   5  -5   3 45446.9 1242.63   1
   5  -3   5 46826.2 1426.51   1
   3  -5   5 45798.5 1326.84   1
  -3   5  -5 46584.3 1381.88   1
  -5   3  -5 47611.4 1432.20   1
  -5   5   3 46456.3 849.375   1
   5  -5   5 195280. 3182.40   1
  -5   5  -5 189252. 3260.87   1
   0   0   6 9.73395 14.2772   1
   0   2  -6 1046.48 155.733   1
   2   0   6 911.333 168.617   1
  -2   0  -6 852.312 163.893   1
   6  -2   0 921.725 141.554   1
   0  -2   6 1383.98 184.236   1
   0   2   6 993.564 149.266   1
   2   0  -6 904.629 129.111   1
   6  -4   0 25.9946 20.1918   1
   4   0   6 117.831 62.3947   1
   6  -4  -2 16797.6 516.828   1
   4  -2   6 16536.7 820.571   1
   4  -2  -6 17311.4 376.936   1
  -6   4   2 15988.0 519.780   1
   6  -4   2 17935.8 747.326   1
   6  -2   4 16339.2 789.109   1
  -2   4  -6 17523.2 811.468   1
  -6   4  -2 17458.9 778.202   1
   2  -4   6 17582.7 785.338   1
  -6   2  -4 15603.4 764.557   1
  -4   6  -2 17482.9 735.429   1
  -4   2  -6 17034.0 831.178   1
  -4   4  -6 19141.8 886.748   1
   4  -4   6 18315.6 868.826   1
  -6   4  -4 18078.1 877.378   1
  -4   6  -4 17324.8 852.000   1
   4  -6   4 16262.5 795.830   1
  -6   6   0 259380. 3350.83   1
   6  -6   0 230815. 3121.84   1
  -6   6   2 188850. 2570.82   1
   6  -2   6 201224. 3465.16   1
  -6   6  -2 213174. 3229.32   1
  -6   2  -6 199611. 3374.33   1
   6  -6   2 186931. 2956.83   1
  -6   6   4 42420.1 815.165   1
  -6   4  -6 39227.1 1453.11   1
  -4   6  -6 38787.1 1407.85   1
   4  -6   6 39031.9 1388.97   1
   6  -6   4 38757.0 1304.02   1
   6  -4   6 39461.2 1446.91   1
   6  -6   6 89194.3 2232.04   1
  -6   6  -6 85400.0 2241.06   1
  -1  -1   7 50325.1 1178.57   1
  -1  -1  -7 53517.5 1278.68   1
   1  -1   7 51284.9 1292.55   1
   1  -1  -7 51578.3 1142.54   1
  -1   1   7 52976.1 1104.34   1
   1   1  -7 53543.4 1254.21   1
  -1   1  -7 54976.9 1377.97   1
   1   1   7 52884.0 1292.59   1
   3   1   7 123000. 2357.65   1
  -3  -1  -7 124502. 2302.23   1
   3  -1   7 123118. 2386.69   1
   3  -1  -7 109214. 1689.55   1
   1  -3   7 113461. 2178.69   1
  -7   3  -1 118374. 2088.83   1
  -1   3   7 119203. 1844.32   1
  -3   1  -7 122922. 2387.20   1
  -1   3  -7 121594. 2312.56   1
   7  -3   1 120137. 2151.46   1
   7  -3  -1 124712. 1964.46   1
   7  -5   1 18439.8 756.085   1
   7  -5  -1 18711.4 667.088   1
  -5   7  -1 17746.3 766.092   1
   5  -1   7 17008.2 905.143   1
  -7   1  -5 19709.8 942.877   1
  -7   5  -1 17680.3 802.721   1
  -5   1  -7 20222.2 945.917   1
   5  -1  -7 20654.3 551.331   1
  -5   7   1 19309.2 716.530   1
  -7   5   1 19613.4 728.096   1
   7  -1   5 18347.7 964.047   1
  -3   5   7 13126.2 402.336   1
   7  -5  -3 15699.2 494.091   1
  -7   5  -3 14259.1 791.449   1
  -3   5  -7 16196.1 881.021   1
   7  -5   3 13453.9 715.540   1
   5  -3   7 12590.4 812.107   1
   7  -3   5 12659.0 790.586   1
   7  -3  -5 13049.7 337.814   1
   5  -7   3 13311.2 709.109   1
   3  -5   7 13553.3 786.798   1
  -5   7  -3 13303.7 754.641   1
  -5   3  -7 13063.5 819.602   1
  -7   3  -5 13266.4 790.477   1
   5  -5   7 431.663 149.744   1
  -5   7  -5 569.318 161.726   1
   7  -5   5 180.671 101.117   1
  -7   5  -5 96.3346 74.6176   1
  -5   5  -7 514.194 225.676   1
   5  -7   5 197.835 86.3018   1
  -7   1  -7 88957.6 2321.16   1
   7  -7   1 96262.9 1974.13   1
  -7   7   1 99681.3 1900.07   1
  -7   7  -1 90978.9 2009.09   1
   7  -7   3 167762. 2930.57   1
   7  -3   7 172279. 3438.87   1
  -7   7  -3 165049. 3071.09   1
  -7   3  -7 165581. 3322.24   1
   5  -7   7 14329.4 903.177   1
  -5   7  -7 13250.4 904.212   1
   7  -7   5 14037.9 855.240   1
   7  -5   7 14177.7 918.045   1
  -7   7   5 12888.5 387.839   1
  -7   7  -5 11773.3 824.547   1
  -7   5  -7 12622.4 888.686   1
  -7   7  -7 143791. 3326.19   1
   7  -7   7 152203. 3293.39   1
   0   0  -8 282145. 3788.03   1
   0   0   8 276576. 3634.08   1
   0   2   8 3.97417 26.6559   1
   2   0  -8 29.7261 34.0758   1
   2   0   8 77.3543 56.4478   1
  -2   0  -8 8.89138 22.3611   1
   2   2   8 11833.0 668.857   1
  -2   2  -8 10375.2 672.981   1
  -2   2   8 12838.0 491.425   1
   8  -2   2 11310.1 706.537   1
   2   2  -8 11199.7 608.459   1
   2  -2  -8 12491.9 510.258   1
   2  -2   8 12135.0 686.733   1
   4   0   8 173671. 3174.93   1
   4   0  -8 167917. 2402.26   1
   8  -4   0 182130. 2791.20   1
  -4   0  -8 174961. 3097.11   1
  -8   4   0 178992. 2720.82   1
   8  -2   4 72918.8 2013.88   1
   4  -2  -8 79705.2 1240.76   1
  -8   2  -4 68257.3 1876.41   1
   8  -4  -2 72803.5 1448.06   1
   8  -4   2 74653.0 1831.82   1
   4  -2   8 77872.1 2019.10   1
  -8   4  -2 77673.3 1850.75   1
  -2   4   8 79472.2 1367.53   1
   2  -4   8 77013.6 1947.72   1
  -2   4  -8 85844.9 2182.60   1
  -4   2  -8 80477.3 2123.19   1
  -8   4  -4 71688.6 1944.20   1
   8  -4  -4 73332.8 1189.08   1
  -4   4  -8 73405.9 2040.66   1
   4  -4   8 69630.8 1962.55   1
   8  -4   4 70858.8 1957.66   1
   6   0   8 53.5835 43.5292   1
  -6   8   0 1.72836 23.9030   1
   8  -6   2 8490.11 568.956   1
   8  -2   6 9019.21 726.298   1
   6  -2  -8 8809.35 313.930   1
   6  -2   8 8060.30 691.971   1
  -8   2  -6 8949.75 699.251   1
   8  -6  -2 8980.20 449.733   1
  -6   8  -2 8664.37 622.019   1
  -8   6   2 8070.43 456.011   1
  -6   2  -8 9358.32 720.212   1
  -6   8   2 8774.42 483.308   1
  -8   6  -2 9231.28 643.797   1
   8  -6   4 35144.3 1326.88   1
  -4   6   8 32562.6 593.051   1
  -4   6  -8 34426.8 1444.09   1
  -8   4  -6 34457.8 1425.07   1
  -6   8   4 33612.9 843.538   1
   4  -6   8 33105.0 1426.40   1
  -6   8  -4 32081.2 1354.49   1
   6  -8   4 32319.4 1277.97   1
   8  -4   6 33167.9 1458.87   1
   6  -4   8 31874.7 1365.45   1
  -6   4  -8 36185.0 1495.89   1
  -8   6  -4 33524.9 1378.37   1
   6  -8   6 33701.9 1442.45   1
  -6   6  -8 34294.4 1497.72   1
   8  -6   6 32361.7 1393.34   1
   6  -6   8 34163.1 1473.29   1
  -6   8  -6 34574.5 1503.13   1
  -6   8   6 30456.1 657.907   1
  -8   6  -6 31334.1 1421.55   1
  -8   8   0 28897.5 1095.86   1
   8  -8   2 136044. 2769.93   1
  -8   8   2 148954. 2487.04   1
   8  -2   8 144108. 3344.23   1
  -8   2  -8 140597. 3205.08   1
  -8   8  -2 142800. 2893.48   1
  -8   8  -4 52305.7 1810.14   1
  -8   8   4 57699.5 1212.94   1
   8  -8   4 53515.7 1766.60   1
   8  -4   8 54313.8 1980.54   1
  -8   4  -8 54262.7 1959.35   1
  -8   8  -6 61128.9 2122.65   1
   8  -8   6 61724.6 2028.61   1
   6  -8   8 67078.7 2287.64   1
   1  -1  -9 153934. 2547.66   1
  -1   1  -9 154562. 2880.23   1
   1  -1   9 158781. 2771.86   1
  -1   1   9 157420. 2450.05   1
   1   1  -9 164871. 2765.91   1
   1   1   9 159132. 2769.05   1
  -1  -1  -9 158433. 2723.69   1
  -1  -1   9 157114. 2573.48   1
   9  -3  -1 94545.8 1942.95   1
   1   3   9 93657.9 2014.07   1
   9  -3   1 90974.1 2108.02   1
   3  -1  -9 98290.8 1762.91   1
   3   1   9 91616.3 2191.02   1
  -1   3   9 95322.6 1778.82   1
  -1   3  -9 91937.1 2218.22   1
  -3  -1  -9 92686.2 2150.09   1
   3  -1   9 93955.5 2254.13   1
   1  -3   9 91758.6 2124.60   1
   3   1  -9 96375.2 1886.39   1
  -3   1  -9 93927.3 2292.89   1
   1   3  -9 96473.3 2158.29   1
  -3   3  -9 9951.21 713.070   1
   9  -3   3 8433.94 647.182   1
   3  -3   9 9241.79 685.071   1
  -3   3   9 10333.6 411.833   1
  -9   3  -3 9269.16 677.188   1
   9  -3  -3 10428.0 542.800   1
   5  -1   9 133130. 2989.79   1
   5  -1  -9 128116. 2045.77   1
  -9   5   1 144644. 2399.50   1
  -9   5  -1 138463. 2593.67   1
   9  -5  -1 146697. 2426.97   1
  -5   1  -9 136281. 2941.40   1
   9  -5   1 141965. 2620.74   1
   5   1   9 142646. 3133.61   1
   9  -3   5 32640.8 1412.38   1
  -3   5   9 34756.3 800.743   1
  -3   5  -9 31429.3 1417.74   1
   5  -3   9 34340.6 1407.21   1
   3  -5   9 34043.5 1422.50   1
  -9   3  -5 33423.6 1380.11   1
  -5   3  -9 33818.3 1493.64   1
  -9   5  -3 35626.3 1343.03   1
   9  -3  -5 34148.1 824.227   1
   9  -5  -3 35550.3 897.053   1
   9  -5   3 33837.7 1320.92   1
  -5   5  -9 181403. 3694.46   1
   5  -5   9 185389. 3653.67   1
   9  -5   5 180089. 3541.42   1
   9  -5  -5 175555. 2028.97   1
  -9   5  -5 182001. 3611.65   1
  -7   1  -9 1399.03 347.194   1
   9  -7   1 2094.96 294.020   1
  -7   9  -1 1887.90 312.994   1
  -7   9   1 2416.71 305.586   1
   9  -7  -1 2232.00 259.562   1
  -9   7   1 2301.90 281.552   1
  -9   7  -1 2088.11 299.468   1
   7  -1   9 1929.03 361.598   1
   9  -3   7 16867.8 1093.17   1
   9  -7   3 17572.8 929.440   1
  -7   9  -3 18638.3 1035.23   1
  -9   7   3 16571.0 635.811   1
  -7   9   3 19147.9 776.721   1
   7  -3   9 18655.2 1137.42   1
  -9   3  -7 19073.8 1105.28   1
  -7   3  -9 17912.9 1102.07   1
  -9   7  -3 16858.3 992.562   1
   7  -5   9 35.9625 73.9929   1
  -7   9   5 55.4206 31.5950   1
  -7   9  -5 57.0393 82.3996   1
   9  -7   5 97.8761 92.9377   1
  -7   5  -9 294.653 279.104   1
   5  -7   9 396.572 152.311   1
   9  -5   7 87.2715 98.9568   1
   7  -9   7 5102.51 616.466   1
   9  -7   7 4693.35 575.017   1
  -9   9   1 54853.5 1587.06   1
  -9   9  -1 50789.7 1660.90   1
   9  -9   3 28130.0 1281.91   1
  -9   9  -3 30111.2 1380.53   1
   9  -3   9 31982.2 1623.61   1
  -9   9   3 30441.7 1004.59   1
  -9   9  -5 85571.8 2582.79   1
  -9   9   5 86587.3 1416.44   1
   0   0  10 1.75178 34.3659   1
   0   0 -10 49.3592 55.2249   1
  -2   0  10 30492.7 996.181   1
   0  -2  10 30150.5 1169.56   1
   2   0 -10 32078.7 1092.74   1
   0   2 -10 34554.3 1305.11   1
   0   2  10 33119.1 1136.57   1
   2   0  10 31750.4 1245.81   1
  -2   0 -10 32057.6 1240.76   1
   0  -2 -10 32069.8 1105.28   1
  -2   2 -10 65307.2 1936.51   1
   2   2  10 61223.7 1748.08   1
   2  -2  10 63133.8 1821.04   1
   2  -2 -10 64941.1 1449.69   1
  -2   2  10 64522.8 1356.46   1
   2   2 -10 66427.0 1759.78   1
  10  -4   0 1.90427 38.3246   1
   4   0  10 23.9945 43.4073   1
  -4   0 -10 19.7012 28.6362   1
   0   4  10 37.6274 40.2461   1
   2  -4  10 21829.0 1118.82   1
  10  -4  -2 22328.2 862.206   1
  10  -4   2 21992.6 1068.58   1
  -2   4 -10 23424.7 1192.75   1
  -2   4  10 23576.5 795.306   1
 -10   4  -2 22310.9 1057.63   1
   4  -2 -10 24064.2 746.907   1
   4  -2  10 21138.9 1112.34   1
  -4   2 -10 20049.8 1102.63   1
  -4   4 -10 3422.15 473.292   1
  10  -4  -4 3115.07 271.281   1
  10  -4   4 2937.80 421.460   1
   4  -4  10 2880.27 411.643   1
 -10   4  -4 3256.80 419.526   1
   6   0  10 66656.3 2210.97   1
 -10   6   0 71951.3 1769.74   1
  -6   0 -10 70681.3 2230.58   1
  10  -6   0 71381.3 1722.16   1
  -2   6  10 20992.0 758.848   1
  10  -6  -2 23985.3 838.410   1
 -10   6  -2 24068.7 1120.66   1
  -6   2 -10 23100.8 1229.85   1
   6  -2  10 23735.1 1312.64   1
  10  -6   2 23512.0 1065.56   1
   6  -2 -10 24812.3 668.985   1
  -4   6  10 102433. 1364.93   1
   6  -4  10 104676. 2839.37   1
  -4   6 -10 101883. 2901.77   1
  10  -4   6 99205.8 2774.65   1
  10  -4  -6 102726. 1486.58   1
  10  -6  -4 106872. 1645.62   1
 -10   4  -6 99351.4 2705.57   1
 -10   6  -4 101796. 2622.00   1
   4  -6  10 100972. 2766.45   1
  10  -6   4 98806.9 2509.03   1
  -6   4 -10 106097. 2939.91   1
   6  -6  10 9674.65 869.609   1
 -10   6  -6 9356.43 800.823   1
  10  -6   6 8995.29 779.498   1
  -8  10   0 2.34709 47.6552   1
   8  -2 -10 438.650 76.5891   1
  -8  10   2 22.4998 37.8305   1
  -8  10  -2 295.000 140.222   1
   8  -2  10 143.337 113.455   1
  10  -8   2 265.912 122.181   1
 -10   8   2 202.035 83.9420   1
  -8  10   4 5146.55 381.977   1
  -8  10  -4 4644.26 584.916   1
  10  -8   4 6041.97 612.465   1
  10  -4   8 6130.24 770.104   1
 -10   8  -4 6015.18 641.537   1
  -8  10   6 20117.0 614.585   1
  10  -8   6 22852.1 1293.06   1
 -10  10   0 165492. 3289.38   1
 -10  10   2 2091.59 276.217   1
 -10  10  -2 2352.78 398.555   1
  10 -10   4 89296.7 2563.49   1
 -10  10   4 82108.2 1620.36   1
  -1  -1  11 120430. 2449.91   1
   1   1 -11 118656. 2527.79   1
   1  -1  11 121210. 2541.97   1
  -1   1  11 118288. 2226.05   1
  -1  -1 -11 116518. 2496.50   1
   1   1  11 125340. 2612.18   1
   1  -1 -11 124110. 2422.87   1
  -1   1 -11 117880. 2689.09   1
  -1   3 -11 74997.0 2182.12   1
   1   3  11 75014.5 1927.68   1
   3   1  11 72761.2 2121.41   1
   3   1 -11 79585.7 1922.00   1
   1   3 -11 88772.7 2409.36   1
  -3  -1 -11 76167.5 2135.73   1
  -1   3  11 81783.0 1793.65   1
   1  -3  11 71324.6 2073.15   1
  -3   1 -11 69740.7 2111.12   1
   3  -1  11 72812.3 2110.57   1
   3  -1 -11 77439.5 1731.37   1
  -3   3 -11 98417.5 2673.45   1
   3  -3  11 100967. 2568.33   1
   5  -1 -11 17539.2 700.019   1
  -1   5  11 16901.4 754.914   1
   5   1  11 17786.6 1114.44   1
  11  -5   1 16496.0 925.028   1
  11  -5  -1 16860.9 835.808   1
  -1   5 -11 19275.4 1231.11   1
   5  -1  11 17924.9 1121.55   1
  -5   1 -11 17737.7 1093.37   1
   5  -3  11 23616.2 1297.10   1
  -3   5 -11 23765.2 1316.81   1
  11  -5   3 24467.3 1237.94   1
  11  -5  -3 25295.7 906.846   1
 -11   5  -3 22793.4 1183.71   1
   3  -5  11 25733.4 1363.08   1
  -5   3 -11 22857.7 1277.16   1
  -3   5  11 24324.0 711.984   1
   5  -5  11 52082.9 2042.19   1
  11  -5   5 50821.9 1981.58   1
 -11   5  -5 49326.9 1881.74   1
  11  -5  -5 49933.8 1014.11   1
  11  -7   1 50076.8 1563.69   1
  11  -7  -1 48371.0 1359.36   1
   7  -1  11 47921.5 2026.47   1
   7  -1 -11 47796.8 1119.88   1
 -11   7   1 49257.6 1441.95   1
 -11   7  -1 48041.7 1599.85   1
  11  -7   3 73951.8 2122.90   1
  -3   7  11 69100.1 1334.06   1
  11  -3   7 73616.8 2574.47   1
  11  -7  -3 72125.3 1457.65   1
 -11   7  -3 70869.0 2139.00   1
  11  -7   5 64.7057 76.2497   1
 -11   9   1 4975.56 464.897   1
 -11   9  -1 5596.84 562.910   1
  11  -9   1 5905.55 542.044   1
  11  -9   3 141.021 106.308   1
 -11   9   3 112.291 63.5900   1
  -9  11   5 7542.03 447.636   1
 -11  11   1 1517.58 282.146   1
 -11  11  -1 1159.60 275.245   1
 -11  11   3 23272.7 926.550   1
   0   0 -12 99.0549 82.7627   1
   0   0  12 45.5242 50.3588   1
   0  -2 -12 99.0123 74.0797   1
   2   2 -12 132.660 86.2641   1
   2  -2 -12 755.689 161.133   1
   2   2  12 435.756 157.949   1
  -2   2  12 843.458 173.277   1
  -2   2 -12 448.046 161.530   1
   2  -2  12 424.227 145.687   1
  12  -4   0 13985.8 867.809   1
   4   0 -12 13743.8 734.401   1
   0   4  12 12961.7 742.562   1
   0   4 -12 13907.6 991.527   1
   4   0  12 14191.7 994.408   1
  -4   0 -12 12364.0 900.644   1
  -2   4  12 50328.7 1267.64   1
   4  -2  12 51968.8 1929.55   1
  12  -4  -2 51703.3 1556.39   1
  -2   4 -12 50313.4 1958.92   1
  12  -4   2 53224.3 1885.03   1
   4   2  12 50774.0 1903.91   1
   4  -2 -12 52380.8 1287.94   1
  -4   2 -12 48825.5 1918.88   1
   2  -4  12 54965.3 1968.39   1
  12  -4   4 2203.26 392.964   1
   4  -4  12 2090.17 391.450   1
   6   0 -12 58.2988 53.7546   1
 -12   6  -2 2012.29 350.029   1
  -2   6  12 1701.73 221.641   1
  12  -6   2 1852.60 346.262   1
   6  -2  12 1885.38 384.356   1
   6  -2 -12 1687.08 187.041   1
  12  -6  -2 1916.85 263.627   1
  12  -6  -4 21973.1 741.635   1
  12  -4  -6 21426.2 690.264   1
  12  -4   6 21455.6 1366.57   1
 -12   6  -4 22798.6 1275.08   1
  12  -6   4 23434.0 1317.07   1
  12  -8   0 21.7982 49.0244   1
  12  -8   2 100021. 2492.97   1
 -12   8  -2 100482. 2607.58   1
  12  -8  -2 100228. 2048.07   1
  12  -8   4 75.6507 97.9762   1
  12 -10   2 29.4314 54.2918   1
 -12  10   2 93.4526 62.9859   1
 -12  10  -2 32.9495 98.8040   1
 -12  12   0 1204.18 254.031   1
   1   1  13 64639.0 1910.03   1
   1   1 -13 65506.2 2004.17   1
  -1  -1  13 61420.2 1822.20   1
   1  -1  13 66118.4 2022.56   1
  -1   1  13 63827.4 1720.76   1
  -1  -1 -13 60159.4 1865.46   1
   1  -1 -13 61947.0 1771.70   1
  -1   1 -13 62068.7 2043.73   1
   1  -3  13 38867.9 1635.90   1
  -1   3  13 37566.5 1234.17   1
   3  -1  13 37925.5 1620.64   1
  -1   3 -13 36129.9 1639.05   1
   3   1 -13 38829.2 1423.84   1
   1   3 -13 34485.8 1583.79   1
   1   3  13 39736.5 1544.29   1
  -3  -1 -13 35601.4 1571.81   1
   3   1  13 37220.8 1602.30   1
  -3   1 -13 34821.3 1583.33   1
   3  -1 -13 37077.3 1279.66   1
  -3   3  13 75836.3 1651.75   1
   3   3  13 73581.6 2299.02   1
   3  -3  13 77145.8 2453.51   1
  13  -5  -1 53235.3 1689.46   1
  13  -5   1 52617.6 1877.37   1
   5   1  13 49074.9 2030.99   1
  -1   5  13 54497.5 1563.49   1
   5  -1  13 51199.3 2108.92   1
   5  -1 -13 52271.3 1388.59   1
  -3   5  13 19859.9 701.394   1
  13  -5   3 20712.6 1251.43   1
  13  -5  -3 19947.5 887.057   1
  13  -5  -5 33092.1 950.794   1
  13  -7   1 12545.2 849.476   1
   7  -1 -13 11101.8 554.310   1
  13  -7  -1 12360.3 735.155   1
  13  -7   3 17557.3 1092.78   1
  13  -7  -3 17099.6 732.534   1
  -3   7  13 17038.0 654.158   1
  13  -9   1 15428.0 930.575   1
 -13   9   1 13843.4 819.461   1
 -13   9  -1 13767.7 915.636   1
  13  -9  -1 16208.0 846.577   1
  13  -9   3 75.8477 96.0070   1
 -13  11   1 916.473 220.568   1
   0   0 -14 245.751 141.217   1
   0   0  14 5.06092 40.4878   1
   0   2 -14 13930.2 1024.23   1
   0  -2  14 14123.2 971.262   1
   2   0  14 14445.7 963.486   1
   0   2  14 14838.8 859.265   1
   0  -2 -14 15486.1 933.815   1
  -2   0 -14 14835.7 1017.05   1
   2   0 -14 14672.1 880.871   1
   2  -2  14 696.292 216.506   1
   2  -2 -14 904.917 205.744   1
  -2   2  14 1233.87 229.818   1
   2   2  14 1063.12 250.659   1
   2   2 -14 1169.83 280.381   1
   0   4  14 6.61935 36.3209   1
   4   0 -14 30.1180 43.6365   1
   4   0  14 30.5770 74.9068   1
   4  -2 -14 1353.60 219.481   1
   4   2  14 850.774 248.837   1
  -2   4  14 1376.56 220.685   1
  14  -6   0 72867.9 2157.57   1
  14  -6   2 612.625 212.180   1
  14  -6  -2 963.189 213.222   1
  -2   6  14 850.452 161.907   1
  14  -8   2 10750.8 855.243   1
  14  -8  -2 8986.45 592.166   1
  14 -10   0 67966.2 1980.83   1
 -14  10   0 63622.6 1980.05   1
   1   1  15 37780.2 1531.11   1
   1  -1  15 33758.0 1516.49   1
  -1  -1 -15 36376.6 1568.34   1
   1  -1 -15 37156.6 1471.20   1
  -1   1  15 38695.9 1456.90   1
  -1   1 -15 37555.8 1705.65   1
   1   1 -15 35097.6 1542.04   1
   3   1 -15 20210.7 1097.25   1
   1  -3  15 17693.0 1197.77   1
  -1   3  15 20822.9 945.823   1
   3  -1 -15 18910.2 925.053   1
   1   3  15 19370.3 1035.58   1
   3   1  15 19710.0 1196.89   1
   3   3  15 44235.9 1963.43   1
   5  -1 -15 29960.4 1078.72   1
  -1   5  15 30344.2 1113.29   1
  15  -7  -1 5424.00 517.139   1
  15  -7   1 5312.04 584.567   1
  15  -9   1 12745.1 918.468   1
  15  -9  -1 12385.8 753.300   1
   0   0  16 2809.53 424.134   1
   0   0 -16 2314.45 394.777   1
   2   0 -16 88.3246 85.4012   1
   0   2  16 2.55848 37.0867   1
   2   2  16 127.347 97.0636   1
   2  -2 -16 195.888 95.5941   1
  -2   2  16 102.201 88.7581   1
   0   4  16 13684.6 832.021   1
   4   0 -16 13715.5 830.615   1
  -2   4  16 15170.9 771.321   1
  -1   1  17 20591.5 1139.57   1
   1   1  17 22550.3 1263.98   1
   1  -1 -17 20437.7 1138.65   1
   1   3  17 14034.2 928.226   1
  -1   3  17 14006.4 829.251   1
   3  -1 -17 13215.7 812.767   1
   3   1 -17 13038.7 922.068   1
   0   2  18 3321.86 458.890   1
   0   0   0    0.00    0.00   0
TITL marseno_009 in Fd-3m
REM Fd-3m (#227 in standard setting)
CELL 0.41427  10.755964  10.755964  10.755964  90.0000  90.0000  90.0000
ZERR    6.00   0.000103   0.000103   0.000103   0.0000   0.0000   0.0000
LATT  4
SYMM -x+3/4,-y+1/4, z+1/2
SYMM -x+1/4, y+1/2,-z+3/4
SYMM  x+1/2,-y+3/4,-z+1/4
SYMM  z, x, y
SYMM  z+1/2,-x+3/4,-y+1/4
SYMM -z+3/4,-x+1/4, y+1/2
SYMM -z+1/4, x+1/2,-y+3/4
SYMM  y, z, x
SYMM -y+1/4, z+1/2,-x+3/4
SYMM  y+1/2,-z+3/4,-x+1/4
SYMM -y+3/4,-z+1/4, x+1/2
SYMM  y+3/4, x+1/4,-z+1/2
SYMM -y,-x,-z
SYMM  y+1/4,-x+1/2, z+3/4
SYMM -y+1/2, x+3/4, z+1/4
SYMM  x+3/4, z+1/4,-y+1/2
SYMM -x+1/2, z+3/4, y+1/4
SYMM -x,-z,-y
SYMM  x+1/4,-z+1/2, y+3/4
SYMM  z+3/4, y+1/4,-x+1/2
SYMM  z+1/4,-y+1/2, x+3/4
SYMM -z+1/2, y+3/4, x+1/4
SYMM -z,-y,-x
SFAC O As
UNIT 36.00 24.00
TREF
HKLF 4
END
;
_shelx_hkl_checksum              56049
_shelx_shelxl_version_number     2014/7
loop_
_space_group_symop_operation_xyz
'x, y, z'
'-x+3/4, -y+1/4, z+1/2'
'-x+1/4, y+1/2, -z+3/4'
'x+1/2, -y+3/4, -z+1/4'
'z, x, y'
'z+1/2, -x+3/4, -y+1/4'
'-z+3/4, -x+1/4, y+1/2'
'-z+1/4, x+1/2, -y+3/4'
'y, z, x'
'-y+1/4, z+1/2, -x+3/4'
'y+1/2, -z+3/4, -x+1/4'
'-y+3/4, -z+1/4, x+1/2'
'y+3/4, x+1/4, -z+1/2'
'-y, -x, -z'
'y+1/4, -x+1/2, z+3/4'
'-y+1/2, x+3/4, z+1/4'
'x+3/4, z+1/4, -y+1/2'
'-x+1/2, z+3/4, y+1/4'
'-x, -z, -y'
'x+1/4, -z+1/2, y+3/4'
'z+3/4, y+1/4, -x+1/2'
'z+1/4, -y+1/2, x+3/4'
'-z+1/2, y+3/4, x+1/4'
'-z, -y, -x'
'x, y+1/2, z+1/2'
'-x+3/4, -y+3/4, z+1'
'-x+1/4, y+1, -z+5/4'
'x+1/2, -y+5/4, -z+3/4'
'z, x+1/2, y+1/2'
'z+1/2, -x+5/4, -y+3/4'
'-z+3/4, -x+3/4, y+1'
'-z+1/4, x+1, -y+5/4'
'y, z+1/2, x+1/2'
'-y+1/4, z+1, -x+5/4'
'y+1/2, -z+5/4, -x+3/4'
'-y+3/4, -z+3/4, x+1'
'y+3/4, x+3/4, -z+1'
'-y, -x+1/2, -z+1/2'
'y+1/4, -x+1, z+5/4'
'-y+1/2, x+5/4, z+3/4'
'x+3/4, z+3/4, -y+1'
'-x+1/2, z+5/4, y+3/4'
'-x, -z+1/2, -y+1/2'
'x+1/4, -z+1, y+5/4'
'z+3/4, y+3/4, -x+1'
'z+1/4, -y+1, x+5/4'
'-z+1/2, y+5/4, x+3/4'
'-z, -y+1/2, -x+1/2'
'x+1/2, y, z+1/2'
'-x+5/4, -y+1/4, z+1'
'-x+3/4, y+1/2, -z+5/4'
'x+1, -y+3/4, -z+3/4'
'z+1/2, x, y+1/2'
'z+1, -x+3/4, -y+3/4'
'-z+5/4, -x+1/4, y+1'
'-z+3/4, x+1/2, -y+5/4'
'y+1/2, z, x+1/2'
'-y+3/4, z+1/2, -x+5/4'
'y+1, -z+3/4, -x+3/4'
'-y+5/4, -z+1/4, x+1'
'y+5/4, x+1/4, -z+1'
'-y+1/2, -x, -z+1/2'
'y+3/4, -x+1/2, z+5/4'
'-y+1, x+3/4, z+3/4'
'x+5/4, z+1/4, -y+1'
'-x+1, z+3/4, y+3/4'
'-x+1/2, -z, -y+1/2'
'x+3/4, -z+1/2, y+5/4'
'z+5/4, y+1/4, -x+1'
'z+3/4, -y+1/2, x+5/4'
'-z+1, y+3/4, x+3/4'
'-z+1/2, -y, -x+1/2'
'x+1/2, y+1/2, z'
'-x+5/4, -y+3/4, z+1/2'
'-x+3/4, y+1, -z+3/4'
'x+1, -y+5/4, -z+1/4'
'z+1/2, x+1/2, y'
'z+1, -x+5/4, -y+1/4'
'-z+5/4, -x+3/4, y+1/2'
'-z+3/4, x+1, -y+3/4'
'y+1/2, z+1/2, x'
'-y+3/4, z+1, -x+3/4'
'y+1, -z+5/4, -x+1/4'
'-y+5/4, -z+3/4, x+1/2'
'y+5/4, x+3/4, -z+1/2'
'-y+1/2, -x+1/2, -z'
'y+3/4, -x+1, z+3/4'
'-y+1, x+5/4, z+1/4'
'x+5/4, z+3/4, -y+1/2'
'-x+1, z+5/4, y+1/4'
'-x+1/2, -z+1/2, -y'
'x+3/4, -z+1, y+3/4'
'z+5/4, y+3/4, -x+1/2'
'z+3/4, -y+1, x+3/4'
'-z+1, y+5/4, x+1/4'
'-z+1/2, -y+1/2, -x'
'-x, -y, -z'
'x-3/4, y-1/4, -z-1/2'
'x-1/4, -y-1/2, z-3/4'
'-x-1/2, y-3/4, z-1/4'
'-z, -x, -y'
'-z-1/2, x-3/4, y-1/4'
'z-3/4, x-1/4, -y-1/2'
'z-1/4, -x-1/2, y-3/4'
'-y, -z, -x'
'y-1/4, -z-1/2, x-3/4'
'-y-1/2, z-3/4, x-1/4'
'y-3/4, z-1/4, -x-1/2'
'-y-3/4, -x-1/4, z-1/2'
'y, x, z'
'-y-1/4, x-1/2, -z-3/4'
'y-1/2, -x-3/4, -z-1/4'
'-x-3/4, -z-1/4, y-1/2'
'x-1/2, -z-3/4, -y-1/4'
'x, z, y'
'-x-1/4, z-1/2, -y-3/4'
'-z-3/4, -y-1/4, x-1/2'
'-z-1/4, y-1/2, -x-3/4'
'z-1/2, -y-3/4, -x-1/4'
'z, y, x'
'-x, -y+1/2, -z+1/2'
'x-3/4, y+1/4, -z'
'x-1/4, -y, z-1/4'
'-x-1/2, y-1/4, z+1/4'
'-z, -x+1/2, -y+1/2'
'-z-1/2, x-1/4, y+1/4'
'z-3/4, x+1/4, -y'
'z-1/4, -x, y-1/4'
'-y, -z+1/2, -x+1/2'
'y-1/4, -z, x-1/4'
'-y-1/2, z-1/4, x+1/4'
'y-3/4, z+1/4, -x'
'-y-3/4, -x+1/4, z'
'y, x+1/2, z+1/2'
'-y-1/4, x, -z-1/4'
'y-1/2, -x-1/4, -z+1/4'
'-x-3/4, -z+1/4, y'
'x-1/2, -z-1/4, -y+1/4'
'x, z+1/2, y+1/2'
'-x-1/4, z, -y-1/4'
'-z-3/4, -y+1/4, x'
'-z-1/4, y, -x-1/4'
'z-1/2, -y-1/4, -x+1/4'
'z, y+1/2, x+1/2'
'-x+1/2, -y, -z+1/2'
'x-1/4, y-1/4, -z'
'x+1/4, -y-1/2, z-1/4'
'-x, y-3/4, z+1/4'
'-z+1/2, -x, -y+1/2'
'-z, x-3/4, y+1/4'
'z-1/4, x-1/4, -y'
'z+1/4, -x-1/2, y-1/4'
'-y+1/2, -z, -x+1/2'
'y+1/4, -z-1/2, x-1/4'
'-y, z-3/4, x+1/4'
'y-1/4, z-1/4, -x'
'-y-1/4, -x-1/4, z'
'y+1/2, x, z+1/2'
'-y+1/4, x-1/2, -z-1/4'
'y, -x-3/4, -z+1/4'
'-x-1/4, -z-1/4, y'
'x, -z-3/4, -y+1/4'
'x+1/2, z, y+1/2'
'-x+1/4, z-1/2, -y-1/4'
'-z-1/4, -y-1/4, x'
'-z+1/4, y-1/2, -x-1/4'
'z, -y-3/4, -x+1/4'
'z+1/2, y, x+1/2'
'-x+1/2, -y+1/2, -z'
'x-1/4, y+1/4, -z-1/2'
'x+1/4, -y, z-3/4'
'-x, y-1/4, z-1/4'
'-z+1/2, -x+1/2, -y'
'-z, x-1/4, y-1/4'
'z-1/4, x+1/4, -y-1/2'
'z+1/4, -x, y-3/4'
'-y+1/2, -z+1/2, -x'
'y+1/4, -z, x-3/4'
'-y, z-1/4, x-1/4'
'y-1/4, z+1/4, -x-1/2'
'-y-1/4, -x+1/4, z-1/2'
'y+1/2, x+1/2, z'
'-y+1/4, x, -z-3/4'
'y, -x-1/4, -z-1/4'
'-x-1/4, -z+1/4, y-1/2'
'x, -z-1/4, -y-1/4'
'x+1/2, z+1/2, y'
'-x+1/4, z, -y-3/4'
'-z-1/4, -y+1/4, x-1/2'
'-z+1/4, y, -x-3/4'
'z, -y-1/4, -x-1/4'
'z+1/2, y+1/2, x'
loop_
_atom_site_label
_atom_site_type_symbol
_atom_site_fract_x
_atom_site_fract_y
_atom_site_fract_z
_atom_site_U_iso_or_equiv
_atom_site_adp_type
_atom_site_occupancy
_atom_site_site_symmetry_order
_atom_site_calc_flag
_atom_site_refinement_flags_posn
_atom_site_refinement_flags_adp
_atom_site_refinement_flags_occupancy
As1 As 0.26876(3) 0.26876(3) 0.26876(3) 0.0123(3) Uani 1 6 d S T P
O1 O 0.3750 0.3750 0.1965(3) 0.0127(5) Uani 1 4 d S T P
loop_
_atom_site_aniso_label
_atom_site_aniso_U_11
_atom_site_aniso_U_22
_atom_site_aniso_U_33
_atom_site_aniso_U_23
_atom_site_aniso_U_13
_atom_site_aniso_U_12
As1 0.0123(3) 0.0123(3) 0.0123(3) -0.00095(9) -0.00095(9) -0.00095(9)
O1 0.0141(8) 0.0141(8) 0.0098(11) 0.000 0.000 -0.0009(11)
loop_
_atom_type_symbol
_atom_type_description
_atom_type_scat_dispersion_real
_atom_type_scat_dispersion_imag
_atom_type_scat_source
O O 0.0020 0.0020 'International Tables Vol C Tables 4.2.6.8 and 6.1.1.4'
As As 0.3110 0.7990 'International Tables Vol C Tables 4.2.6.8 and 6.1.1.4'
loop_
_geom_angle_atom_site_label_1
_geom_angle_atom_site_label_2
_geom_angle_atom_site_label_3
_geom_angle
_geom_angle_site_symmetry_1
_geom_angle_site_symmetry_3
O1 As1 O1 98.40(11) . 9
O1 As1 O1 98.41(11) 9 5
O1 As1 O1 98.40(11) . 5
As1 O1 As1 128.64(17) 26_554 .
loop_
_geom_bond_atom_site_label_1
_geom_bond_atom_site_label_2
_geom_bond_distance
_geom_bond_site_symmetry_2
As1 O1 1.7932(12) .
As1 O1 1.7932(12) 5
As1 O1 1.7932(12) 9
O1 As1 1.7932(12) 26_554
