#------------------------------------------------------------------------------
#$Date: 2015-09-04 08:12:49 +0300 (Fri, 04 Sep 2015) $
#$Revision: 153928 $
#$URL: svn://www.crystallography.net/cod/cif/4/51/35/4513586.cif $
#------------------------------------------------------------------------------
#
# This file is available in the Crystallography Open Database (COD),
# http://www.crystallography.net/
#
# All data on this site have been placed in the public domain by the
# contributors.
#
data_4513586
loop_
_publ_author_name
'Gu\'nka, Piotr A.'
'Dziubek, Kamil F.'
'G\/ladysiak, Andrzej'
'Dranka, Maciej'
'Piechota, Jacek'
'Hanfland, Michael'
'Katrusiak, Andrzej'
'Zachara, Janusz'
_publ_section_title
;
 Compressed Arsenolite As4O6and Its Helium Clathrate As4O6&#x00B7;2He
;
_journal_issue                   8
_journal_name_full               'Crystal Growth &amp; Design'
_journal_page_first              3740
_journal_paper_doi               10.1021/acs.cgd.5b00390
_journal_volume                  15
_journal_year                    2015
_chemical_formula_moiety         '2(As2 O3)'
_chemical_formula_sum            'As4 O6'
_chemical_formula_weight         395.68
_space_group_crystal_system      cubic
_space_group_IT_number           227
_space_group_name_Hall           '-F 4vw 2vw 3'
_space_group_name_H-M_alt        'F d -3 m'
_symmetry_space_group_name_Hall  '-F 4vw 2vw 3'
_symmetry_space_group_name_H-M   'F d -3 m :2'
_atom_sites_solution_primary     direct
_audit_creation_date             2015-01-22
_audit_creation_method
;
Olex2 1.2-beta
(compiled 2015.01.19 svn.r3143 for OlexSys, GUI svn.r4992)
;
_cell_angle_alpha                90
_cell_angle_beta                 90
_cell_angle_gamma                90
_cell_formula_units_Z            8
_cell_length_a                   9.7089(4)
_cell_length_b                   9.7089(4)
_cell_length_c                   9.7089(4)
_cell_measurement_pressure       2.004e7(10)
_cell_measurement_reflns_used    253
_cell_measurement_temperature    293(2)
_cell_measurement_theta_max      19.9730
_cell_measurement_theta_min      2.1060
_cell_volume                     915.19(7)
_computing_cell_refinement
;
CrysAlisPro, Agilent Technologies,
Version 1.171.37.35 (release 13-08-2014 CrysAlis171 .NET)
(compiled Aug 13 2014,18:06:01)
;
_computing_data_collection
;
CrysAlisPro, Agilent Technologies,
Version 1.171.37.35 (release 13-08-2014 CrysAlis171 .NET)
(compiled Aug 13 2014,18:06:01)
;
_computing_data_reduction
;
CrysAlisPro, Agilent Technologies,
Version 1.171.37.35 (release 13-08-2014 CrysAlis171 .NET)
(compiled Aug 13 2014,18:06:01)
;
_computing_molecular_graphics    'Olex2 (Dolomanov et al., 2009)'
_computing_publication_material  'Olex2 (Dolomanov et al., 2009)'
_computing_structure_refinement  'ShelXL (Sheldrick, 2008)'
_computing_structure_solution    'ShelXT (Sheldrick, 2015)'
_diffrn_ambient_environment      He
_diffrn_ambient_pressure         2.004e7(10)
_diffrn_ambient_temperature      293(2)
_diffrn_detector                 'CCD plate'
_diffrn_measured_fraction_theta_full 0.804
_diffrn_measured_fraction_theta_max 0.618
_diffrn_measurement_details
;
  1 phi    148.00  212.00   0.5000    1.0000
omega____ theta____ kappa____ phi______ frames
   0.0000    0.0000    0.0000     -     128
;
_diffrn_measurement_device       'abstract diffractometer'
_diffrn_measurement_device_type
'MAR-CrysAlisPro-abstract goniometer: imported MAR images'
_diffrn_measurement_method       '\p scans'
_diffrn_orient_matrix_UB_11      0.0250007000
_diffrn_orient_matrix_UB_12      -0.0345816000
_diffrn_orient_matrix_UB_13      -0.0008239000
_diffrn_orient_matrix_UB_21      -0.0258029000
_diffrn_orient_matrix_UB_22      -0.0179431000
_diffrn_orient_matrix_UB_23      -0.0288343000
_diffrn_orient_matrix_UB_31      0.0230304000
_diffrn_orient_matrix_UB_32      0.0173643000
_diffrn_orient_matrix_UB_33      -0.0314528000
_diffrn_radiation_monochromator  synchrotron
_diffrn_radiation_probe          x-ray
_diffrn_radiation_wavelength     0.41427
_diffrn_reflns_av_R_equivalents  0.0301
_diffrn_reflns_av_unetI/netI     0.0226
_diffrn_reflns_laue_measured_fraction_full 0.804
_diffrn_reflns_laue_measured_fraction_max 0.618
_diffrn_reflns_limit_h_max       13
_diffrn_reflns_limit_h_min       -13
_diffrn_reflns_limit_k_max       11
_diffrn_reflns_limit_k_min       -9
_diffrn_reflns_limit_l_max       16
_diffrn_reflns_limit_l_min       -16
_diffrn_reflns_number            406
_diffrn_reflns_point_group_measured_fraction_full 0.804
_diffrn_reflns_point_group_measured_fraction_max 0.618
_diffrn_reflns_theta_full        14.392
_diffrn_reflns_theta_max         20.282
_diffrn_reflns_theta_min         2.118
_diffrn_source                   synchrotron
_exptl_absorpt_coefficient_mu    6.636
_exptl_absorpt_correction_T_max  1.00000
_exptl_absorpt_correction_T_min  0.78535
_exptl_absorpt_correction_type   multi-scan
_exptl_absorpt_process_details
;
CrysAlisPro, Agilent Technologies,
Version 1.171.37.35 (release 13-08-2014 CrysAlis171 .NET)
(compiled Aug 13 2014,18:06:01)
Empirical absorption correction using spherical harmonics,
 implemented in SCALE3 ABSPACK scaling algorithm.
;
_exptl_crystal_density_diffrn    5.743
_exptl_crystal_description       block
_exptl_crystal_F_000             1440
_exptl_crystal_size_max          0.065
_exptl_crystal_size_mid          0.04
_exptl_crystal_size_min          0.02
_refine_diff_density_max         0.431
_refine_diff_density_min         -0.435
_refine_diff_density_rms         0.109
_refine_ls_extinction_method     none
_refine_ls_goodness_of_fit_ref   1.277
_refine_ls_hydrogen_treatment    undef
_refine_ls_matrix_type           full
_refine_ls_number_parameters     8
_refine_ls_number_reflns         84
_refine_ls_number_restraints     0
_refine_ls_restrained_S_all      1.277
_refine_ls_R_factor_all          0.0368
_refine_ls_R_factor_gt           0.0306
_refine_ls_shift/su_max          0.000
_refine_ls_shift/su_mean         0.000
_refine_ls_structure_factor_coef Fsqd
_refine_ls_weighting_details
'w=1/[\s^2^(Fo^2^)+(0.0260P)^2^+8.4850P] where P=(Fo^2^+2Fc^2^)/3'
_refine_ls_weighting_scheme      calc
_refine_ls_wR_factor_gt          0.0705
_refine_ls_wR_factor_ref         0.0738
_reflns_Friedel_coverage         0.000
_reflns_number_gt                75
_reflns_number_total             84
_reflns_threshold_expression     'I > 2\s(I)'
_cod_data_source_file            cg5b00390_si_002.cif
_cod_data_source_block           marseno_026
_cod_original_cell_volume        915.19(12)
_cod_database_code               4513586
_chemical_oxdiff_formula         'As4 O6'
_shelx_space_group_comment
;
The symmetry employed for this shelxl refinement is uniquely defined
by the following loop, which should always be used as a source of
symmetry information in preference to the above space-group names.
They are only intended as comments.
;
_olex2_refinement_description
;
;
_shelx_res_file
;
    marseno_026.res created by SHELXL-2014/7

TITL marseno_026_a.res in Fd-3m
REM Old TITL marseno_026 in Fd-3m #227
CELL 0.41427 9.7089 9.7089 9.7089 90 90 90
ZERR 8 0.00043 0.00043 0.00043 0 0 0
LATT 4
SYMM 0.75-X,0.25-Y,0.5+Z
SYMM 0.25-X,0.5+Y,0.75-Z
SYMM 0.5+X,0.75-Y,0.25-Z
SYMM +Z,+X,+Y
SYMM 0.5+Z,0.75-X,0.25-Y
SYMM 0.75-Z,0.25-X,0.5+Y
SYMM 0.25-Z,0.5+X,0.75-Y
SYMM +Y,+Z,+X
SYMM 0.25-Y,0.5+Z,0.75-X
SYMM 0.5+Y,0.75-Z,0.25-X
SYMM 0.75-Y,0.25-Z,0.5+X
SYMM 0.75+Y,0.25+X,0.5-Z
SYMM -Y,-X,-Z
SYMM 0.25+Y,0.5-X,0.75+Z
SYMM 0.5-Y,0.75+X,0.25+Z
SYMM 0.75+X,0.25+Z,0.5-Y
SYMM 0.5-X,0.75+Z,0.25+Y
SYMM -X,-Z,-Y
SYMM 0.25+X,0.5-Z,0.75+Y
SYMM 0.75+Z,0.25+Y,0.5-X
SYMM 0.25+Z,0.5-Y,0.75+X
SYMM 0.5-Z,0.75+Y,0.25+X
SYMM -Z,-Y,-X
SFAC O As
DISP As 0.311 0.799 1882.762
DISP O 0.002 0.002 10.067
UNIT 48 32

L.S. 10
PLAN  20
BOND $H
LIST 6
fmap 2
acta
OMIT 1 11 11
REM <olex2.extras>
REM <HklSrc "%.\\marseno_026.hkl">
REM </olex2.extras>

WGHT    0.026000    8.485000
FVAR       1.72983
AS1   2    0.255482    0.255482    0.255482    10.16667    0.01035    0.01035 =
         0.01035   -0.00056   -0.00056   -0.00056
O1    1    0.375000    0.375000    0.181274    10.25000    0.01414    0.01414 =
         0.01107    0.00000    0.00000   -0.00057
HKLF 4

REM  marseno_026_a.res in Fd-3m
REM R1 =  0.0306 for      75 Fo > 4sig(Fo)  and  0.0368 for all      84 data
REM      8 parameters refined using      0 restraints

END

WGHT      0.0262      8.5249

REM Highest difference peak  0.431,  deepest hole -0.435,  1-sigma level  0.109
Q1    1   0.2279  0.2279  0.0221  10.16667  0.05    0.43
Q2    1   0.5000  0.5000  0.0000  10.08333  0.05    0.40
Q3    1   0.2145  0.2145  0.2145  10.16667  0.05    0.39
Q4    1   0.3750  0.3750  0.2595  10.25000  0.05    0.37
Q5    1   0.3981  0.4416  0.2193  11.00000  0.05    0.37
Q6    1   0.2613  0.2186  0.1055  11.00000  0.05    0.32
Q7    1   0.3318  0.3318  0.1810  10.50000  0.05    0.31
Q8    1   0.2172  0.1490  0.1490  10.50000  0.05    0.30
Q9    1   0.1250  0.1922  0.1250  10.25000  0.05    0.30
Q10   1   0.3750  0.3750  0.2801  10.25000  0.05    0.28
Q11   1   0.3534  0.3966  0.2624  10.50000  0.05    0.28
Q12   1   0.4698  0.2802  0.2802  10.16667  0.05    0.26
Q13   1   0.4072  0.3013  0.1998  11.00000  0.05    0.26
Q14   1   0.4332  0.3168  0.1148  10.50000  0.05    0.26
Q15   1   0.3037  0.2614  0.3037  10.50000  0.05    0.24
Q16   1   0.3115  0.4385  0.1639  10.50000  0.05    0.22
Q17   1   0.4409  0.4409  0.0471  10.50000  0.05    0.20
Q18   1   0.2324  0.1996  0.2676  11.00000  0.05    0.19
Q19   1   0.2567  0.1060  0.2567  10.50000  0.05    0.18
Q20   1   0.3338  0.2326  0.2326  10.50000  0.05    0.17
;
_shelx_res_checksum              21274
_shelx_hkl_file
;
   1   1  -1 57972.1 393.963   1
   1   1   1 60201.7 855.467   1
   2   2   0 6963.96 325.876   1
  -2  -2   0 7777.65 320.999   1
  -2   0  -2 7532.79 377.127   1
   2   0   2 6502.11 351.713   1
   3   1   1 5.16880 34.7383   1
  -3  -1  -1 16.2128 22.7911   1
  -1  -1   3 2.41167 13.6734   1
   1   1   3 10.2468 17.1655   1
  -3  -1   1 27.7242 22.7499   1
  -1  -1  -3 4.03555 24.1573   1
   1   1  -3 9.05614 9.57633   1
  -1  -3  -3 67652.4 1436.50   1
  -3  -3  -1 68414.4 1305.98   1
  -3  -1  -3 66324.3 1429.16   1
   3   3   1 69929.9 1388.50   1
   1   3   3 72866.2 1485.17   1
   3   1   3 67802.8 1415.85   1
  -3  -3   1 68855.0 1059.37   1
   3   3  -1 68577.5 1097.32   1
   3   3  -3 686.663 69.6947   1
   3   3   3 644.977 135.651   1
  -3  -3  -3 730.938 151.308   1
  -4  -2   0 17.0004 17.6301   1
   2   0   4 8.11125 30.7900   1
  -2   0  -4 14.5648 44.1737   1
  -4  -2  -2 32325.5 996.638   1
   4   2   2 31651.4 999.905   1
  -2  -2  -4 34162.6 1045.82   1
  -4  -2   2 32901.0 667.369   1
   2   2   4 32579.3 1044.87   1
  -4  -2   4 419.312 39.3163   1
  -4  -2  -4 149.934 78.0711   1
   4   4   2 615.203 157.288   1
  -4  -4  -2 261.223 88.9886   1
   2   4   4 315.660 116.159   1
   4   4  -2 398.972 84.9226   1
  -2  -4  -4 249.680 114.530   1
   4   2   4 349.371 116.338   1
  -1   1   5 55.6583 57.1396   1
   1   1  -5 71.7032 23.3000   1
  -5  -1  -1 40.4333 21.5111   1
  -1  -1   5 37.4100 22.6529   1
   1  -1   5 28.3603 23.9449   1
  -1  -1  -5 55.4563 54.3020   1
  -1   1  -5 99.8840 60.7279   1
  -1  -3  -5 8022.17 543.664   1
  -3  -1  -5 8867.99 598.893   1
   5   1   3 8423.52 563.571   1
  -5  -3  -1 7945.65 521.455   1
   3   1   5 7840.24 551.006   1
   5   3  -1 8240.91 433.918   1
   1   3   5 9244.07 601.433   1
  -5  -1  -3 7999.58 607.316   1
  -5  -3   1 7723.64 438.159   1
   5   3   1 8118.75 526.708   1
   3   5   1 8957.03 581.653   1
  -3  -1   5 7716.35 265.068   1
   3   5   3 788.732 185.699   1
  -3  -5  -3 818.974 182.912   1
   5   3   3 868.733 189.493   1
  -5  -3   3 843.927 106.276   1
  -5  -3  -3 900.577 197.087   1
   3   3   5 824.278 203.095   1
  -3  -3  -5 759.664 172.729   1
  -5  -5   1 106581. 1787.69   1
  -5  -5  -1 102376. 1970.93   1
   5   5   1 105483. 2126.59   1
   5   1   5 102922. 2218.88   1
  -5  -1  -5 100070. 2353.45   1
   5   5  -1 106125. 1844.80   1
   5   5   3 4942.86 517.010   1
   3   5   5 4180.73 521.212   1
  -5  -5  -3 3987.94 427.722   1
  -3  -5  -5 3524.37 419.196   1
   5   5  -3 3762.25 271.611   1
  -5  -3  -5 3723.13 461.467   1
   5   3   5 3763.64 458.357   1
  -5  -5  -5 9697.73 770.935   1
   5   5   5 10409.3 832.168   1
   0   0  -6 53.7062 35.6595   1
   0   2  -6 3096.79 273.024   1
   2   0   6 3429.56 343.303   1
  -6  -2   0 2937.59 324.802   1
  -2   0   6 3593.29 279.056   1
   0  -2  -6 3390.60 351.205   1
  -2   0  -6 2850.19 324.072   1
   0   2   6 3668.53 380.656   1
   6   4   0 6.83090 51.5326   1
   4   6   0 155.034 85.7106   1
   4   0   6 51.3534 45.6570   1
   6   4   2 61.7755 47.5556   1
  -2  -4  -6 27.7547 35.5375   1
  -6  -4   2 49.0122 46.6617   1
  -4  -2  -6 32.6852 59.3176   1
   4   2   6 89.6364 36.8656   1
   6   2   4 32.1586 46.5683   1
  -6  -2   4 96.8607 42.0168   1
   6   4  -2 112.341 59.8606   1
  -6  -4  -2 97.6729 88.3665   1
   2   4   6 68.8368 102.584   1
   4   4   6 36.1575 16.4048   1
  -4  -4  -6 197.141 101.310   1
  -6  -4   4 140.887 47.7794   1
  -4  -6  -4 103.863 105.370   1
   4   6   4 174.532 115.800   1
   6   4   4 332.791 141.858   1
  -6  -4  -4 147.385 108.742   1
   6   6   0 26801.5 1111.06   1
  -6  -6   0 25287.1 1026.86   1
   6   6   4 501.175 159.936   1
  -4  -6  -6 820.525 217.917   1
  -6  -6  -4 629.361 185.747   1
   4   6   6 610.477 228.597   1
  -6  -4  -6 537.512 199.496   1
   6   4   6 254.311 189.767   1
   6   6  -4 790.433 129.252   1
   1  -1  -7 7170.61 491.101   1
   1   1   7 6915.39 536.874   1
  -1   1  -7 6412.30 459.765   1
  -1  -1   7 7018.31 402.046   1
  -1   1   7 6939.84 490.729   1
  -1  -1  -7 7201.83 527.293   1
   1   1  -7 7177.81 409.420   1
   1  -1   7 7013.76 486.275   1
  -3   1  -7 8980.75 691.419   1
  -1  -3  -7 8630.67 636.304   1
  -3  -1   7 7738.30 351.760   1
   7   3   1 8926.02 617.712   1
   3   1   7 9501.45 685.144   1
  -7  -3   1 8639.75 536.205   1
   1   3  -7 8420.66 450.636   1
  -3  -1  -7 8771.26 681.630   1
   1   3   7 10263.7 747.680   1
  -7  -3  -1 8847.78 630.411   1
  -3  -3  -7 93605.6 2259.04   1
   7   3   3 95403.9 2243.79   1
  -7  -3   3 90041.8 1480.56   1
  -7  -3  -3 94926.0 2387.53   1
   3   3   7 97429.4 2339.03   1
   7   5   1 1809.23 287.630   1
  -7  -5   1 2397.08 296.993   1
   5   7  -1 2386.26 352.261   1
  -5  -1  -7 1626.09 316.615   1
   5   1   7 1653.32 306.764   1
   7   5  -1 1612.21 231.562   1
  -7  -5  -1 2070.49 306.037   1
   5   7   1 2700.92 407.441   1
  -7  -5  -3 7817.61 689.617   1
   7   5  -3 7776.76 451.643   1
   7   5   3 8177.44 720.929   1
  -3  -5  -7 7431.31 699.159   1
   7   3   5 8183.44 744.976   1
  -7  -5   3 8061.12 466.140   1
  -5  -7  -3 6690.37 668.640   1
  -7  -3  -5 7076.21 723.328   1
  -7  -3   5 7072.20 328.523   1
   5   3   7 8045.38 761.326   1
   3   5   7 8348.25 812.345   1
   5   7   3 9477.13 825.916   1
  -5  -3  -7 7898.67 768.565   1
  -7  -5  -5 6276.19 691.740   1
   5   5   7 6863.79 709.431   1
  -5  -5  -7 6350.42 661.339   1
   7   5   5 6843.62 732.911   1
  -5  -7  -5 5904.19 690.758   1
   5   7   5 6619.33 763.450   1
   7   1   7 36828.3 1640.76   1
  -7  -7  -1 36722.2 1418.75   1
  -7  -1  -7 35388.2 1761.92   1
   7   7  -1 38464.7 1324.81   1
   7   7   1 39091.1 1501.08   1
   7   3   7 19455.3 1268.19   1
  -7  -7  -3 20441.6 1180.58   1
   7   7   3 21356.6 1235.17   1
   7   7  -3 20855.7 887.250   1
  -7  -3  -7 19272.9 1306.54   1
  -7  -5  -7 8149.15 864.735   1
  -5  -7  -7 7166.53 795.457   1
   7   5   7 8352.96 873.108   1
   7   7   5 8408.66 857.104   1
  -7  -7  -5 9157.26 847.710   1
   5   7   7 8281.95 945.938   1
   7   7  -5 7509.36 415.612   1
  -2   0   8 46.8097 35.8092   1
   2   0   8 50.5449 63.2618   1
  -2  -2  -8 21117.9 1043.26   1
   2   2  -8 21258.9 642.014   1
  -2   2  -8 20742.4 1007.01   1
   2   2   8 22890.2 1117.96   1
  -8  -2  -2 20677.0 1160.91   1
  -8  -2  -4 264.891 152.547   1
   2   4  -8 584.089 102.196   1
   8   2   4 892.460 221.332   1
  -8  -4  -2 318.920 132.628   1
   8   4   2 458.977 147.716   1
   2   4   8 317.806 147.646   1
  -8  -4   2 584.962 151.269   1
  -4  -2  -8 366.369 191.895   1
   4   2   8 543.429 208.369   1
  -2  -4  -8 588.479 165.879   1
   8   6   0 1.97215 32.0124   1
  -8  -2  -6 3424.02 547.831   1
  -8  -6  -2 4310.67 511.294   1
   6   2   8 3822.92 554.330   1
  -8  -6   2 4514.57 425.616   1
  -6  -2  -8 3612.36 546.788   1
   8   6   2 4524.61 536.778   1
   8   2   6 3556.03 519.987   1
   6   8   2 4321.66 564.735   1
   8   6  -2 3320.23 355.572   1
  -6  -4  -8 426.434 183.911   1
   4   6   8 50.5862 61.5145   1
   6   8   4 194.544 148.657   1
   8   4   6 514.357 190.969   1
   6   8  -4 157.375 68.8944   1
  -8  -4  -6 37.8150 80.8647   1
  -4  -6  -8 467.812 201.174   1
   6   4   8 407.314 216.351   1
   8   6  -4 297.431 86.7056   1
   8   6   4 589.599 236.621   1
  -6  -8  -4 175.253 136.375   1
  -6  -8  -6 262.004 187.114   1
  -6  -6  -8 331.280 180.150   1
  -8  -6  -6 569.552 226.227   1
   6   8  -6 290.547 88.3200   1
   8   8   0 303077. 4431.47   1
  -8  -2  -8 966.268 364.598   1
   8   8   2 1569.00 349.036   1
  -8  -8  -2 1794.35 342.251   1
   8   8  -2 1940.31 325.910   1
  -1  -1  -9 31599.2 1229.57   1
   1   1  -9 32098.4 1002.90   1
  -1  -1   9 33111.1 1049.19   1
   1  -1   9 33198.7 1184.75   1
  -1   1   9 32229.4 1166.19   1
  -1   1  -9 31578.6 1194.53   1
   1   1   9 33156.4 1330.44   1
  -1  -3  -9 12936.7 843.981   1
   3   1   9 13760.7 893.921   1
  -3  -1   9 12461.0 576.746   1
  -1   3  -9 11891.5 750.693   1
  -9  -3   1 13322.2 840.616   1
  -9  -3  -1 11860.0 872.518   1
  -3   1  -9 12383.1 843.533   1
   1   3   9 13558.3 938.586   1
   1   3  -9 12755.3 619.026   1
  -3  -1  -9 14366.2 989.598   1
  -3   1   9 14573.2 781.121   1
  -1   3   9 15991.5 1017.84   1
   3   3   9 272.726 142.871   1
  -9  -3  -3 488.441 191.808   1
   9   3   3 151.533 94.8350   1
  -3  -3  -9 290.519 167.192   1
  -9  -3   3 422.675 123.994   1
   9   5   1 19919.8 1072.42   1
   5   1   9 20930.7 1213.38   1
  -5  -1   9 16184.5 560.483   1
  -5  -1  -9 19507.3 1256.63   1
  -9  -5  -1 21059.0 1161.17   1
  -9  -5   1 21290.1 1059.98   1
   9   5  -1 19335.7 950.716   1
  -9  -5   3 16814.1 788.042   1
   9   3   5 15298.1 1082.68   1
   9   5   3 16645.3 1119.99   1
  -3  -5  -9 14792.8 1070.77   1
   5   3   9 16523.8 1193.84   1
  -9  -3   5 14766.2 649.376   1
  -9  -3  -5 14334.8 1176.88   1
   3   5   9 17290.8 1257.24   1
   3   5  -9 13179.2 438.213   1
  -9  -5  -3 16450.3 1132.12   1
  -5  -3  -9 17291.6 1246.91   1
  -9  -5   5 65115.4 1256.69   1
  -5  -5  -9 63061.7 2330.84   1
   9   5   5 64884.4 2418.18   1
  -9  -5  -5 68111.7 2584.36   1
  -7  -1  -9 474.449 247.979   1
  -9  -7  -1 321.552 151.583   1
   7   1   9 155.187 86.0232   1
  -9  -7   1 354.352 147.605   1
   7   9   1 391.899 130.988   1
   9   7  -1 289.283 130.111   1
   9   7   1 486.185 175.176   1
  -9  -7  -3 773.690 276.276   1
  -9  -3   7 528.174 89.4789   1
  -9  -3  -7 302.506 154.933   1
   7   9  -3 166.441 102.846   1
   7   9   3 474.303 226.201   1
   9   7  -3 1298.94 221.010   1
  -9  -7   3 963.934 214.607   1
  -7  -3  -9 755.851 282.905   1
   9   7   3 576.126 230.114   1
  -9  -7  -5 2728.74 515.988   1
   7   9  -5 2180.53 269.459   1
   9   9  -1 31921.1 1490.68   1
   9   9   1 33911.9 1723.89   1
  -9  -9  -3 21241.2 1396.26   1
   9   9  -3 22105.3 1073.74   1
   2   0  10 4342.22 482.419   1
   0  -2 -10 4485.88 503.210   1
  -2   0  10 4135.20 410.097   1
   0   2  10 4821.14 512.764   1
   0   2 -10 5140.17 469.055   1
  -2   0 -10 4636.76 537.940   1
   0   4 -10 3.10834 36.5583   1
 -10  -4   0 52.5967 68.3273   1
  -4   0  10 33.7693 55.9684   1
   4   0  10 93.0746 112.568   1
  -4  -2 -10 57.3718 67.4571   1
  10   4   2 4.96852 31.2356   1
 -10  -4  -2 29.1502 36.6517   1
  -4  -4 -10 76.0730 103.608   1
 -10  -4   4 89.7110 70.4894   1
 -10  -4  -4 87.0848 113.086   1
   4   4  10 44.0021 72.8979   1
  -6   0 -10 2073.18 456.836   1
 -10  -6   0 3183.41 449.726   1
  10   6   0 3248.70 447.649   1
  -6  -2 -10 295347. 5494.60   1
 -10  -6  -2 292721. 4810.74   1
 -10  -6   4 8081.17 554.932   1
 -10  -4   6 7217.01 442.091   1
 -10  -6  -4 7014.23 821.020   1
 -10  -8   0 110.835 100.156   1
   8  10   2 214.716 127.473   1
 -10  -8   2 245.577 91.8510   1
  10   8  -2 300.851 117.636   1
  10   8   2 183.129 161.878   1
  10  10   0 16951.8 1230.86   1
  10  10  -2 138387. 3090.81   1
  10  10  -4 104.466 73.5516   1
  -1  -1 -11 18872.1 1032.01   1
   1  -1  11 20287.9 1022.80   1
   1   1 -11 21039.2 921.519   1
  -1  -1  11 20242.4 923.010   1
   1   1  11 18868.8 1103.30   1
  -1   1  11 21472.9 1108.07   1
  -1   1 -11 22574.3 1161.85   1
  -3  -1 -11 17410.9 1142.19   1
   3   1  11 18169.5 1162.58   1
  -3  -1  11 17208.5 767.336   1
  -1  -3 -11 17236.6 1088.90   1
   1   3  11 18259.9 1163.07   1
  -3   1  11 17120.2 919.206   1
  -1   3 -11 16683.5 955.468   1
  -3   1 -11 16068.4 1090.34   1
  -1   3  11 18921.5 1181.85   1
   1   3 -11 18474.1 835.764   1
  -3  -3 -11 20862.5 1270.33   1
   3   3  11 22242.3 1431.06   1
   1   5 -11 117.715 79.4531   1
  -5   1 -11 78.5829 113.992   1
   5   1  11 111.064 131.322   1
  -5  -1 -11 32.4830 96.2660   1
  -5  -3 -11 9618.59 967.817   1
  11   5   3 9102.30 869.621   1
  -3  -5 -11 9002.28 917.578   1
 -11  -5  -3 9263.37 967.363   1
 -11  -5   3 9980.32 712.680   1
 -11  -5   5 5184.62 428.678   1
 -11  -7  -1 25121.3 1398.60   1
 -11  -7   1 24257.8 1220.71   1
  11   7  -1 23181.3 1208.47   1
  11   7   1 25007.8 1388.80   1
 -11  -7  -3 36495.5 1866.35   1
 -11  -7   3 37761.5 1382.18   1
 -11  -9  -1 205.865 104.990   1
 -11  -9   1 524.668 186.088   1
  11   9  -1 485.597 184.761   1
  11   9  -3 1012.62 246.334   1
  11  11  -1 926.095 311.881   1
   0   0 -12 234929. 3580.23   1
   0   0  12 230618. 3652.08   1
  -2   0 -12 120.532 144.235   1
   0   2 -12 78.5273 67.1810   1
  -2   0  12 23.6308 418.943   1
   0   2  12 220.039 126.238   1
  -2  -2 -12 5376.50 621.737   1
   2   2  12 4464.63 620.511   1
  -2   2  12 4527.21 543.608   1
  -2   2 -12 4749.11 572.826   1
   4   0  12 250042. 4444.87   1
  -4   0  12 249154. 3270.07   1
   0   4  12 242974. 4735.43   1
   0   4 -12 249652. 3528.63   1
  -4   0 -12 260097. 4911.28   1
  -4  -2 -12 414.265 207.194   1
  -2  -4 -12 206.271 145.548   1
   2   4 -12 338.446 105.903   1
 -12  -6   0 213.457 132.857   1
 -12  -6   4 108.520 89.3948   1
 -12  -8   0 149935. 3404.56   1
  12   8   0 149073. 3421.43   1
 -12  -8   2 885.133 245.186   1
  -1   1 -13 18188.2 1074.29   1
   1  -1  13 18816.3 1087.04   1
  -1  -1  13 19825.5 1004.52   1
  -1  -1 -13 19381.8 1169.71   1
   1   1 -13 18677.2 956.643   1
   1   1  13 18182.8 1162.24   1
  -1   1  13 17964.6 1091.12   1
  -3   1  13 3378.21 457.195   1
   1   3 -13 2763.58 346.957   1
  -1   3  13 2714.90 467.354   1
  -3  -1  13 2782.21 347.896   1
  -3  -1 -13 2255.37 415.367   1
  -1   3 -13 3175.80 452.605   1
  -1  -3 -13 2597.40 488.807   1
  -3   1 -13 2632.91 486.173   1
   1   3  13 2372.61 512.371   1
   1   5 -13 23029.9 1038.56   1
 -13  -7   1 4841.36 609.652   1
 -13  -7   3 256.266 92.0281   1
 -13  -9   1 19923.4 1283.03   1
  13   9  -1 2.89077 293.037   1
   0   0  14 57.2496 67.6085   1
   2   0  14 26.4320 42.6393   1
  -2   0 -14 129.282 85.3172   1
  -2  -2 -14 149006. 3663.70   1
  -2   2  14 146430. 3456.52   1
   0   4 -14 22.8078 28.6772   1
  -1   1 -15 2402.58 404.328   1
  -1  -1 -15 2874.13 508.201   1
  -1   1  15 2720.46 448.599   1
  -1   3 -15 13222.5 983.211   1
   0   0  16 129692. 3182.73   1
  -2   2 -16 35.5060 102.136   1
   0   0   0    0.00    0.00   0
TITL marseno_026 in Fd-3m
REM Fd-3m (#227 in standard setting)
CELL 0.41427   9.708900   9.708900   9.708900  90.0000  90.0000  90.0000
ZERR    8.00   0.000430   0.000430   0.000430   0.0000   0.0000   0.0000
LATT  4
SYMM -x+3/4,-y+1/4, z+1/2
SYMM -x+1/4, y+1/2,-z+3/4
SYMM  x+1/2,-y+3/4,-z+1/4
SYMM  z, x, y
SYMM  z+1/2,-x+3/4,-y+1/4
SYMM -z+3/4,-x+1/4, y+1/2
SYMM -z+1/4, x+1/2,-y+3/4
SYMM  y, z, x
SYMM -y+1/4, z+1/2,-x+3/4
SYMM  y+1/2,-z+3/4,-x+1/4
SYMM -y+3/4,-z+1/4, x+1/2
SYMM  y+3/4, x+1/4,-z+1/2
SYMM -y,-x,-z
SYMM  y+1/4,-x+1/2, z+3/4
SYMM -y+1/2, x+3/4, z+1/4
SYMM  x+3/4, z+1/4,-y+1/2
SYMM -x+1/2, z+3/4, y+1/4
SYMM -x,-z,-y
SYMM  x+1/4,-z+1/2, y+3/4
SYMM  z+3/4, y+1/4,-x+1/2
SYMM  z+1/4,-y+1/2, x+3/4
SYMM -z+1/2, y+3/4, x+1/4
SYMM -z,-y,-x
SFAC O As
UNIT 48.00 32.00
TREF
HKLF 4
END
;
_shelx_hkl_checksum              87696
_shelx_shelxl_version_number     2014/7
loop_
_space_group_symop_operation_xyz
'x, y, z'
'-x+3/4, -y+1/4, z+1/2'
'-x+1/4, y+1/2, -z+3/4'
'x+1/2, -y+3/4, -z+1/4'
'z, x, y'
'z+1/2, -x+3/4, -y+1/4'
'-z+3/4, -x+1/4, y+1/2'
'-z+1/4, x+1/2, -y+3/4'
'y, z, x'
'-y+1/4, z+1/2, -x+3/4'
'y+1/2, -z+3/4, -x+1/4'
'-y+3/4, -z+1/4, x+1/2'
'y+3/4, x+1/4, -z+1/2'
'-y, -x, -z'
'y+1/4, -x+1/2, z+3/4'
'-y+1/2, x+3/4, z+1/4'
'x+3/4, z+1/4, -y+1/2'
'-x+1/2, z+3/4, y+1/4'
'-x, -z, -y'
'x+1/4, -z+1/2, y+3/4'
'z+3/4, y+1/4, -x+1/2'
'z+1/4, -y+1/2, x+3/4'
'-z+1/2, y+3/4, x+1/4'
'-z, -y, -x'
'x, y+1/2, z+1/2'
'-x+3/4, -y+3/4, z+1'
'-x+1/4, y+1, -z+5/4'
'x+1/2, -y+5/4, -z+3/4'
'z, x+1/2, y+1/2'
'z+1/2, -x+5/4, -y+3/4'
'-z+3/4, -x+3/4, y+1'
'-z+1/4, x+1, -y+5/4'
'y, z+1/2, x+1/2'
'-y+1/4, z+1, -x+5/4'
'y+1/2, -z+5/4, -x+3/4'
'-y+3/4, -z+3/4, x+1'
'y+3/4, x+3/4, -z+1'
'-y, -x+1/2, -z+1/2'
'y+1/4, -x+1, z+5/4'
'-y+1/2, x+5/4, z+3/4'
'x+3/4, z+3/4, -y+1'
'-x+1/2, z+5/4, y+3/4'
'-x, -z+1/2, -y+1/2'
'x+1/4, -z+1, y+5/4'
'z+3/4, y+3/4, -x+1'
'z+1/4, -y+1, x+5/4'
'-z+1/2, y+5/4, x+3/4'
'-z, -y+1/2, -x+1/2'
'x+1/2, y, z+1/2'
'-x+5/4, -y+1/4, z+1'
'-x+3/4, y+1/2, -z+5/4'
'x+1, -y+3/4, -z+3/4'
'z+1/2, x, y+1/2'
'z+1, -x+3/4, -y+3/4'
'-z+5/4, -x+1/4, y+1'
'-z+3/4, x+1/2, -y+5/4'
'y+1/2, z, x+1/2'
'-y+3/4, z+1/2, -x+5/4'
'y+1, -z+3/4, -x+3/4'
'-y+5/4, -z+1/4, x+1'
'y+5/4, x+1/4, -z+1'
'-y+1/2, -x, -z+1/2'
'y+3/4, -x+1/2, z+5/4'
'-y+1, x+3/4, z+3/4'
'x+5/4, z+1/4, -y+1'
'-x+1, z+3/4, y+3/4'
'-x+1/2, -z, -y+1/2'
'x+3/4, -z+1/2, y+5/4'
'z+5/4, y+1/4, -x+1'
'z+3/4, -y+1/2, x+5/4'
'-z+1, y+3/4, x+3/4'
'-z+1/2, -y, -x+1/2'
'x+1/2, y+1/2, z'
'-x+5/4, -y+3/4, z+1/2'
'-x+3/4, y+1, -z+3/4'
'x+1, -y+5/4, -z+1/4'
'z+1/2, x+1/2, y'
'z+1, -x+5/4, -y+1/4'
'-z+5/4, -x+3/4, y+1/2'
'-z+3/4, x+1, -y+3/4'
'y+1/2, z+1/2, x'
'-y+3/4, z+1, -x+3/4'
'y+1, -z+5/4, -x+1/4'
'-y+5/4, -z+3/4, x+1/2'
'y+5/4, x+3/4, -z+1/2'
'-y+1/2, -x+1/2, -z'
'y+3/4, -x+1, z+3/4'
'-y+1, x+5/4, z+1/4'
'x+5/4, z+3/4, -y+1/2'
'-x+1, z+5/4, y+1/4'
'-x+1/2, -z+1/2, -y'
'x+3/4, -z+1, y+3/4'
'z+5/4, y+3/4, -x+1/2'
'z+3/4, -y+1, x+3/4'
'-z+1, y+5/4, x+1/4'
'-z+1/2, -y+1/2, -x'
'-x, -y, -z'
'x-3/4, y-1/4, -z-1/2'
'x-1/4, -y-1/2, z-3/4'
'-x-1/2, y-3/4, z-1/4'
'-z, -x, -y'
'-z-1/2, x-3/4, y-1/4'
'z-3/4, x-1/4, -y-1/2'
'z-1/4, -x-1/2, y-3/4'
'-y, -z, -x'
'y-1/4, -z-1/2, x-3/4'
'-y-1/2, z-3/4, x-1/4'
'y-3/4, z-1/4, -x-1/2'
'-y-3/4, -x-1/4, z-1/2'
'y, x, z'
'-y-1/4, x-1/2, -z-3/4'
'y-1/2, -x-3/4, -z-1/4'
'-x-3/4, -z-1/4, y-1/2'
'x-1/2, -z-3/4, -y-1/4'
'x, z, y'
'-x-1/4, z-1/2, -y-3/4'
'-z-3/4, -y-1/4, x-1/2'
'-z-1/4, y-1/2, -x-3/4'
'z-1/2, -y-3/4, -x-1/4'
'z, y, x'
'-x, -y+1/2, -z+1/2'
'x-3/4, y+1/4, -z'
'x-1/4, -y, z-1/4'
'-x-1/2, y-1/4, z+1/4'
'-z, -x+1/2, -y+1/2'
'-z-1/2, x-1/4, y+1/4'
'z-3/4, x+1/4, -y'
'z-1/4, -x, y-1/4'
'-y, -z+1/2, -x+1/2'
'y-1/4, -z, x-1/4'
'-y-1/2, z-1/4, x+1/4'
'y-3/4, z+1/4, -x'
'-y-3/4, -x+1/4, z'
'y, x+1/2, z+1/2'
'-y-1/4, x, -z-1/4'
'y-1/2, -x-1/4, -z+1/4'
'-x-3/4, -z+1/4, y'
'x-1/2, -z-1/4, -y+1/4'
'x, z+1/2, y+1/2'
'-x-1/4, z, -y-1/4'
'-z-3/4, -y+1/4, x'
'-z-1/4, y, -x-1/4'
'z-1/2, -y-1/4, -x+1/4'
'z, y+1/2, x+1/2'
'-x+1/2, -y, -z+1/2'
'x-1/4, y-1/4, -z'
'x+1/4, -y-1/2, z-1/4'
'-x, y-3/4, z+1/4'
'-z+1/2, -x, -y+1/2'
'-z, x-3/4, y+1/4'
'z-1/4, x-1/4, -y'
'z+1/4, -x-1/2, y-1/4'
'-y+1/2, -z, -x+1/2'
'y+1/4, -z-1/2, x-1/4'
'-y, z-3/4, x+1/4'
'y-1/4, z-1/4, -x'
'-y-1/4, -x-1/4, z'
'y+1/2, x, z+1/2'
'-y+1/4, x-1/2, -z-1/4'
'y, -x-3/4, -z+1/4'
'-x-1/4, -z-1/4, y'
'x, -z-3/4, -y+1/4'
'x+1/2, z, y+1/2'
'-x+1/4, z-1/2, -y-1/4'
'-z-1/4, -y-1/4, x'
'-z+1/4, y-1/2, -x-1/4'
'z, -y-3/4, -x+1/4'
'z+1/2, y, x+1/2'
'-x+1/2, -y+1/2, -z'
'x-1/4, y+1/4, -z-1/2'
'x+1/4, -y, z-3/4'
'-x, y-1/4, z-1/4'
'-z+1/2, -x+1/2, -y'
'-z, x-1/4, y-1/4'
'z-1/4, x+1/4, -y-1/2'
'z+1/4, -x, y-3/4'
'-y+1/2, -z+1/2, -x'
'y+1/4, -z, x-3/4'
'-y, z-1/4, x-1/4'
'y-1/4, z+1/4, -x-1/2'
'-y-1/4, -x+1/4, z-1/2'
'y+1/2, x+1/2, z'
'-y+1/4, x, -z-3/4'
'y, -x-1/4, -z-1/4'
'-x-1/4, -z+1/4, y-1/2'
'x, -z-1/4, -y-1/4'
'x+1/2, z+1/2, y'
'-x+1/4, z, -y-3/4'
'-z-1/4, -y+1/4, x-1/2'
'-z+1/4, y, -x-3/4'
'z, -y-1/4, -x-1/4'
'z+1/2, y+1/2, x'
loop_
_atom_site_label
_atom_site_type_symbol
_atom_site_fract_x
_atom_site_fract_y
_atom_site_fract_z
_atom_site_U_iso_or_equiv
_atom_site_adp_type
_atom_site_occupancy
_atom_site_site_symmetry_order
_atom_site_calc_flag
_atom_site_refinement_flags_posn
_atom_site_refinement_flags_adp
_atom_site_refinement_flags_occupancy
As1 As 0.25548(4) 0.25548(4) 0.25548(4) 0.0103(3) Uani 1 6 d S T P
O1 O 0.3750 0.3750 0.1813(3) 0.0131(7) Uani 1 4 d S T P
loop_
_atom_site_aniso_label
_atom_site_aniso_U_11
_atom_site_aniso_U_22
_atom_site_aniso_U_33
_atom_site_aniso_U_23
_atom_site_aniso_U_13
_atom_site_aniso_U_12
As1 0.0103(3) 0.0103(3) 0.0103(3) -0.00056(9) -0.00056(9) -0.00056(9)
O1 0.0141(10) 0.0141(10) 0.0111(15) 0.000 0.000 -0.0006(12)
loop_
_atom_type_symbol
_atom_type_description
_atom_type_scat_dispersion_real
_atom_type_scat_dispersion_imag
_atom_type_scat_source
O O 0.0020 0.0020 'International Tables Vol C Tables 4.2.6.8 and 6.1.1.4'
As As 0.3110 0.7990 'International Tables Vol C Tables 4.2.6.8 and 6.1.1.4'
loop_
_geom_angle_atom_site_label_1
_geom_angle_atom_site_label_2
_geom_angle_atom_site_label_3
_geom_angle
_geom_angle_site_symmetry_1
_geom_angle_site_symmetry_3
O1 As1 O1 95.82(13) . 9
O1 As1 O1 95.82(12) . 5
O1 As1 O1 95.82(12) 9 5
As1 O1 As1 132.59(19) . 26_554
loop_
_geom_bond_atom_site_label_1
_geom_bond_atom_site_label_2
_geom_bond_distance
_geom_bond_site_symmetry_2
As1 O1 1.7922(14) .
As1 O1 1.7922(14) 9
As1 O1 1.7922(14) 5
O1 As1 1.7922(14) 26_554
