#------------------------------------------------------------------------------
#$Date: 2013-05-05 17:21:46 +0300 (Sun, 05 May 2013) $
#$Revision: 85285 $
#$URL: svn://www.crystallography.net/cod/cif/9/00/34/9003474.cif $
#------------------------------------------------------------------------------
#
# This file is available in the Crystallography Open Database (COD),
# http://www.crystallography.net/. The original data for this entry
# were provided the American Mineralogist Crystal Structure Database,
# http://rruff.geo.arizona.edu/AMS/amcsd.php
#
# The file may be used within the scientific community so long as
# proper attribution is given to the journal article from which the
# data were obtained.
#
data_9003474
loop_
_publ_author_name
'Kyono, A.'
'Kimata, M.'
_publ_section_title
;
 Structural variations induced by difference of the inert pair effect
 in the stibnite-bismuthinite solid solution series (Sb,Bi)2S3
 Sample #3
;
_journal_name_full               'American Mineralogist'
_journal_page_first              932
_journal_page_last               940
_journal_volume                  89
_journal_year                    2004
_chemical_formula_sum            'Bi2 S3'
_chemical_name_mineral           Bismuthinite
_space_group_IT_number           62
_symmetry_space_group_name_Hall  '-P 2ac 2n'
_symmetry_space_group_name_H-M   'P n m a'
_cell_angle_alpha                90
_cell_angle_beta                 90
_cell_angle_gamma                90
_cell_length_a                   11.3540
_cell_length_b                   3.9911
_cell_length_c                   11.188
_cell_volume                     506.984
_exptl_crystal_density_diffrn    6.736
_cod_database_code               9003474
loop_
_symmetry_equiv_pos_as_xyz
x,y,z
x,1/2-y,z
-x,1/2+y,-z
1/2-x,1/2+y,1/2+z
1/2+x,1/2-y,1/2-z
1/2+x,y,1/2-z
1/2-x,-y,1/2+z
-x,-y,-z
loop_
_atom_site_aniso_label
_atom_site_aniso_U_11
_atom_site_aniso_U_22
_atom_site_aniso_U_33
_atom_site_aniso_U_12
_atom_site_aniso_U_13
_atom_site_aniso_U_23
Bi1 0.02160 0.01070 0.01720 0.00000 -0.00230 0.00000
Bi2 0.01920 0.01500 0.01990 0.00000 0.00120 0.00000
S1 0.01400 0.01600 0.00300 0.00000 0.00400 0.00000
S2 0.01000 0.01200 0.01400 0.00000 -0.00300 0.00000
S3 0.01100 0.01400 0.00500 0.00000 -0.00100 0.00000
loop_
_atom_site_label
_atom_site_fract_x
_atom_site_fract_y
_atom_site_fract_z
_atom_site_U_iso_or_equiv
Bi1 0.48330 0.25000 0.32560 0.01646
Bi2 0.34080 0.75000 0.03410 0.01798
S1 0.28290 0.25000 0.19200 0.01140
S2 0.54920 0.75000 0.12870 0.01140
S3 0.37520 0.75000 0.44250 0.01013
