#------------------------------------------------------------------------------
#$Date: 2017-10-14 23:18:49 +0300 (Sat, 14 Oct 2017) $
#$Revision: 202019 $
#$URL: file:///home/coder/svn-repositories/cod/cif/9/01/16/9011642.cif $
#------------------------------------------------------------------------------
#
# This file is available in the Crystallography Open Database (COD),
# http://www.crystallography.net/. The original data for this entry
# were provided the American Mineralogist Crystal Structure Database,
# http://rruff.geo.arizona.edu/AMS/amcsd.php
#
# The file may be used within the scientific community so long as
# proper attribution is given to the journal article from which the
# data were obtained.
#
data_9011642
loop_
_publ_author_name
'Schwarz, U.'
'Takemura, K.'
'Hanfland, M.'
'Syassen, K.'
_publ_section_title
;
 Crystal structure of cesium-V
 Locality: synthetic
 Sample: at P = 19.6 GPa
 Note: phase V
;
_journal_name_full               'Physical Review Letters'
_journal_page_first              2711
_journal_page_last               2714
_journal_paper_doi               10.1103/PhysRevLett.81.2711
_journal_volume                  81
_journal_year                    1998
_chemical_formula_sum            Cs
_chemical_name_common            Cesium
_space_group_IT_number           64
_symmetry_space_group_name_Hall  '-C 2ac 2'
_symmetry_space_group_name_H-M   'C m c a'
_cell_angle_alpha                90
_cell_angle_beta                 90
_cell_angle_gamma                90
_cell_length_a                   10.879
_cell_length_b                   6.443
_cell_length_c                   6.389
_cell_volume                     447.827
_diffrn_ambient_pressure         1.96e+07
_exptl_crystal_density_diffrn    7.885
_cod_database_code               9011642
loop_
_symmetry_equiv_pos_as_xyz
x,y,z
1/2+x,1/2+y,z
x,1/2-y,1/2+z
1/2+x,-y,1/2+z
-x,1/2+y,1/2-z
1/2-x,+y,1/2-z
-x,y,z
1/2-x,1/2+y,z
x,-y,-z
1/2+x,1/2-y,-z
x,1/2+y,1/2-z
1/2+x,+y,1/2-z
-x,1/2-y,1/2+z
1/2-x,-y,1/2+z
-x,-y,-z
1/2-x,1/2-y,-z
loop_
_atom_site_label
_atom_site_fract_x
_atom_site_fract_y
_atom_site_fract_z
Cs1 0.00000 0.17810 0.32800
Cs2 0.21180 0.00000 0.00000
loop_
_cod_related_entry_id
_cod_related_entry_database
_cod_related_entry_code
1 ChemSpider 4510778
