#------------------------------------------------------------------------------
#$Date: 2016-02-18 13:08:31 +0200 (Thu, 18 Feb 2016) $
#$Revision: 176725 $
#$URL: svn://www.crystallography.net/cod/cif/9/01/18/9011846.cif $
#------------------------------------------------------------------------------
#
# This file is available in the Crystallography Open Database (COD),
# http://www.crystallography.net/. The original data for this entry
# were provided the American Mineralogist Crystal Structure Database,
# http://rruff.geo.arizona.edu/AMS/amcsd.php
#
# The file may be used within the scientific community so long as
# proper attribution is given to the journal article from which the
# data were obtained.
#
data_9011846
loop_
_publ_author_name
'Baranova, R. V.'
'Pinsker, Z. G.'
_publ_section_title
;
 Study of the copper-tellurium system in thin films
 Locality: synthetic
;
_journal_name_full               'Soviet Physics Crystallography'
_journal_page_first              83
_journal_page_last               85
_journal_volume                  9
_journal_year                    1964
_chemical_formula_sum            'Cu Te'
_chemical_name_mineral           Vulcanite
_space_group_IT_number           59
_symmetry_space_group_name_Hall  'P 2 2ab -1ab'
_symmetry_space_group_name_H-M   'P m m n :1'
_cell_angle_alpha                90
_cell_angle_beta                 90
_cell_angle_gamma                90
_cell_length_a                   3.10
_cell_length_b                   4.02
_cell_length_c                   6.86
_cell_volume                     85.489
_exptl_crystal_density_diffrn    7.426
_cod_original_sg_symbol_H-M      'P m m n'
_cod_database_code               9011846
loop_
_symmetry_equiv_pos_as_xyz
x,y,z
x,-y,z
1/2-x,1/2+y,-z
-x,y,z
1/2+x,1/2-y,-z
1/2+x,1/2+y,-z
-x,-y,z
1/2-x,1/2-y,-z
loop_
_atom_site_label
_atom_site_fract_x
_atom_site_fract_y
_atom_site_fract_z
Cu 0.00000 0.50000 0.44900
Te 0.00000 0.00000 0.22300
