#------------------------------------------------------------------------------
#$Date: 2016-02-18 13:08:31 +0200 (Thu, 18 Feb 2016) $
#$Revision: 176725 $
#$URL: svn://www.crystallography.net/cod/cif/9/01/10/9011051.cif $
#------------------------------------------------------------------------------
#
# This file is available in the Crystallography Open Database (COD),
# http://www.crystallography.net/. The original data for this entry
# were provided the American Mineralogist Crystal Structure Database,
# http://rruff.geo.arizona.edu/AMS/amcsd.php
#
# The file may be used within the scientific community so long as
# proper attribution is given to the journal article from which the
# data were obtained.
#
data_9011051
loop_
_publ_author_name
'Geller, S.'
_publ_section_title
;
 The crystal structure of Pd17Se15
 Locality: synthetic
 Sample: Pm3m refinement
;
_journal_name_full               'Acta Crystallographica'
_journal_page_first              713
_journal_page_last               721
_journal_paper_doi               10.1107/S0365110X62001929
_journal_volume                  15
_journal_year                    1962
_chemical_formula_sum            'Pd17 Se15'
_chemical_name_mineral           Palladseite
_space_group_IT_number           221
_symmetry_space_group_name_Hall  '-P 4 2 3'
_symmetry_space_group_name_H-M   'P m -3 m'
_cell_angle_alpha                90
_cell_angle_beta                 90
_cell_angle_gamma                90
_cell_length_a                   10.606
_cell_length_b                   10.606
_cell_length_c                   10.606
_cell_volume                     1193.040
_exptl_crystal_density_diffrn    8.333
_cod_original_sg_symbol_H-M      'P m 3 m'
_cod_database_code               9011051
loop_
_symmetry_equiv_pos_as_xyz
x,y,z
z,-x,y
-y,z,-x
x,-y,z
-z,x,-y
y,-z,x
-x,y,-z
x,-z,-y
-z,y,x
y,-x,-z
-x,z,y
z,-y,-x
-y,x,z
x,z,y
-z,-y,-x
y,x,z
-x,-z,-y
z,y,x
-y,-x,-z
z,x,-y
-y,-z,x
x,y,-z
-z,-x,y
y,z,-x
-x,-y,z
-z,x,y
y,-z,-x
-x,y,z
z,-x,-y
-y,z,x
x,-y,-z
-x,z,-y
z,-y,x
-y,x,-z
x,-z,y
-z,y,-x
y,-x,z
-x,-z,y
z,y,-x
-y,-x,z
x,z,-y
-z,-y,x
y,x,-z
-z,-x,-y
y,z,x
-x,-y,-z
z,x,y
-y,-z,-x
loop_
_atom_site_label
_atom_site_fract_x
_atom_site_fract_y
_atom_site_fract_z
_atom_site_U_iso_or_equiv
Pdm 0.35210 0.35210 0.15010 0.00190
Pde 0.00000 0.00000 0.23780 0.00114
Pdd 0.00000 0.00000 0.50000 -0.00266
Pdb 0.50000 0.50000 0.50000 0.00215
Sej 0.16840 0.16840 0.50000 -0.00063
Sei 0.22970 0.22970 0.00000 -0.00329
Sef 0.50000 0.50000 0.25710 -0.00380
