#------------------------------------------------------------------------------
#$Date: 2014-07-12 11:06:43 +0300 (Sat, 12 Jul 2014) $
#$Revision: 120115 $
#$URL: svn://www.crystallography.net/cod/cif/9/01/16/9011675.cif $
#------------------------------------------------------------------------------
#
# This file is available in the Crystallography Open Database (COD),
# http://www.crystallography.net/. The original data for this entry
# were provided the American Mineralogist Crystal Structure Database,
# http://rruff.geo.arizona.edu/AMS/amcsd.php
#
# The file may be used within the scientific community so long as
# proper attribution is given to the journal article from which the
# data were obtained.
#
data_9011675
loop_
_publ_author_name
'Hull, S.'
'Keen, D. A.'
_publ_section_title
;
 Pressure-induced phase transitions in AgCl, AgBr, and AgI
 Sample: P = 8.6 Gpa, Phase II
;
_journal_name_full               'Physical Review B'
_journal_page_first              750
_journal_page_last               761
_journal_volume                  59
_journal_year                    1999
_chemical_formula_structural     AgCl
_chemical_formula_sum            'Ag Cl'
_space_group_IT_number           4
_symmetry_space_group_name_Hall  'P 2yb'
_symmetry_space_group_name_H-M   'P 1 21 1'
_cell_angle_alpha                90
_cell_angle_beta                 100.69
_cell_angle_gamma                90
_cell_length_a                   3.530
_cell_length_b                   4.011
_cell_length_c                   5.243
_cell_volume                     72.946
_diffrn_ambient_pressure         8.6e+06
_exptl_crystal_density_diffrn    6.525
_cod_database_code               9011675
loop_
_symmetry_equiv_pos_as_xyz
x,y,z
-x,1/2+y,-z
loop_
_atom_site_label
_atom_site_fract_x
_atom_site_fract_y
_atom_site_fract_z
_atom_site_U_iso_or_equiv
Ag 0.15700 0.25000 0.21000 0.07346
Cl 0.30800 0.25000 0.70500 0.04179
_journal_paper_doi 10.1103/PhysRevB.59.750
