#------------------------------------------------------------------------------
#$Date: 2014-07-12 11:06:43 +0300 (Sat, 12 Jul 2014) $
#$Revision: 120115 $
#$URL: svn://www.crystallography.net/cod/cif/9/01/16/9011645.cif $
#------------------------------------------------------------------------------
#
# This file is available in the Crystallography Open Database (COD),
# http://www.crystallography.net/. The original data for this entry
# were provided the American Mineralogist Crystal Structure Database,
# http://rruff.geo.arizona.edu/AMS/amcsd.php
#
# The file may be used within the scientific community so long as
# proper attribution is given to the journal article from which the
# data were obtained.
#
data_9011645
loop_
_publ_author_name
'Hanfland, M.'
'Schwarz, U.'
'Syassen, K.'
'Takemura, K.'
_publ_section_title
;
 Crystal structure of the high-pressure phase silicon VI
 Locality: synthetic
 Sample: at P = 42.5 GPa
 Note: phase VI
;
_journal_name_full               'Physical Review Letters'
_journal_page_first              1197
_journal_page_last               1200
_journal_volume                  82
_journal_year                    1999
_chemical_formula_sum            Si
_chemical_name_common            Silicon
_space_group_IT_number           64
_symmetry_space_group_name_Hall  '-C 2ac 2'
_symmetry_space_group_name_H-M   'C m c a'
_cell_angle_alpha                90
_cell_angle_beta                 90
_cell_angle_gamma                90
_cell_length_a                   7.9686
_cell_length_b                   4.7759
_cell_length_c                   4.7546
_cell_volume                     180.947
_diffrn_ambient_pressure         4.25e+07
_exptl_crystal_density_diffrn    4.124
_cod_database_code               9011645
loop_
_symmetry_equiv_pos_as_xyz
x,y,z
1/2+x,1/2+y,z
x,1/2-y,1/2+z
1/2+x,-y,1/2+z
-x,1/2+y,1/2-z
1/2-x,+y,1/2-z
-x,y,z
1/2-x,1/2+y,z
x,-y,-z
1/2+x,1/2-y,-z
x,1/2+y,1/2-z
1/2+x,+y,1/2-z
-x,1/2-y,1/2+z
1/2-x,-y,1/2+z
-x,-y,-z
1/2-x,1/2-y,-z
loop_
_atom_site_label
_atom_site_fract_x
_atom_site_fract_y
_atom_site_fract_z
Si1 0.00000 0.17200 0.32800
Si2 0.21900 0.00000 0.00000
_journal_paper_doi 10.1103/PhysRevLett.82.1197
