#------------------------------------------------------------------------------
#$Date: 2016-02-18 13:08:31 +0200 (Thu, 18 Feb 2016) $
#$Revision: 176725 $
#$URL: svn://www.crystallography.net/cod/cif/9/01/10/9011056.cif $
#------------------------------------------------------------------------------
#
# This file is available in the Crystallography Open Database (COD),
# http://www.crystallography.net/. The original data for this entry
# were provided the American Mineralogist Crystal Structure Database,
# http://rruff.geo.arizona.edu/AMS/amcsd.php
#
# The file may be used within the scientific community so long as
# proper attribution is given to the journal article from which the
# data were obtained.
#
data_9011056
loop_
_publ_author_name
'Kasper, J. S.'
'Richards, S. M.'
_publ_section_title
;
 The crystal structures of new forms of silicon and germanium
 Locality: synthetic
;
_journal_name_full               'Acta Crystallographica'
_journal_page_first              752
_journal_page_last               755
_journal_paper_doi               10.1107/S0365110X64001840
_journal_volume                  17
_journal_year                    1964
_chemical_formula_sum            Si
_chemical_name_mineral           Silicon
_space_group_IT_number           206
_symmetry_space_group_name_Hall  '-I 2b 2c 3'
_symmetry_space_group_name_H-M   'I a -3'
_cell_angle_alpha                90
_cell_angle_beta                 90
_cell_angle_gamma                90
_cell_length_a                   6.636
_cell_length_b                   6.636
_cell_length_c                   6.636
_cell_volume                     292.226
_exptl_crystal_density_diffrn    2.553
_cod_original_sg_symbol_H-M      'I a 3'
_cod_database_code               9011056
loop_
_symmetry_equiv_pos_as_xyz
x,y,z
1/2+x,1/2+y,1/2+z
1/2+z,x,1/2-y
+z,1/2+x,-y
1/2+z,-x,y
+z,1/2-x,1/2+y
-z,x,1/2+y
1/2-z,1/2+x,+y
-z,-x,-y
1/2-z,1/2-x,1/2-y
1/2+y,1/2-z,-x
+y,-z,1/2-x
-y,1/2-z,x
1/2-y,-z,1/2+x
1/2-y,z,-x
-y,1/2+z,1/2-x
y,z,x
1/2+y,1/2+z,1/2+x
x,1/2-y,1/2+z
1/2+x,-y,+z
-x,y,1/2+z
1/2-x,1/2+y,+z
x,1/2+y,-z
1/2+x,+y,1/2-z
-x,-y,-z
1/2-x,1/2-y,1/2-z
1/2-z,-x,1/2+y
-z,1/2-x,+y
1/2-z,x,-y
-z,1/2+x,1/2-y
z,-x,1/2-y
1/2+z,1/2-x,-y
z,x,y
1/2+z,1/2+x,1/2+y
1/2-y,1/2+z,x
-y,+z,1/2+x
y,1/2+z,-x
1/2+y,+z,1/2-x
1/2+y,-z,x
+y,1/2-z,1/2+x
-y,-z,-x
1/2-y,1/2-z,1/2-x
-x,1/2+y,1/2-z
1/2-x,+y,-z
x,-y,1/2-z
1/2+x,1/2-y,-z
-x,1/2-y,z
1/2-x,-y,1/2+z
loop_
_atom_site_label
_atom_site_fract_x
_atom_site_fract_y
_atom_site_fract_z
_atom_site_U_iso_or_equiv
Si 0.10030 0.10030 0.10030 0.01127
