#------------------------------------------------------------------------------
#$Date: 2016-02-14 16:26:36 +0200 (Sun, 14 Feb 2016) $
#$Revision: 176435 $
#$URL: svn://www.crystallography.net/cod/cif/1/50/97/1509725.cif $
#------------------------------------------------------------------------------
#
# This file is available in the Crystallography Open Database (COD),
# http://www.crystallography.net/
#
# All data on this site have been placed in the public domain by the
# contributors.
#
data_1509725
loop_
_publ_author_name
'Atoji, M.'
_publ_section_title
;
 Neutron diffraction studies of Tm Au2, Yb Au2, and Tm Ag2 at 300-1.7 K
;
_journal_name_full               'Journal of Chemical Physics'
_journal_page_first              6433
_journal_page_last               6434
_journal_paper_doi               10.1063/1.1672967
_journal_volume                  52
_journal_year                    1970
_chemical_formula_sum            'Ag2 Tm'
_chemical_name_systematic        'Ag2 Tm'
_space_group_IT_number           139
_symmetry_space_group_name_Hall  '-I 4 2'
_symmetry_space_group_name_H-M   'I 4/m m m'
_cell_angle_alpha                90
_cell_angle_beta                 90
_cell_angle_gamma                90
_cell_formula_units_Z            2
_cell_length_a                   3.652
_cell_length_b                   3.652
_cell_length_c                   9.14
_cell_volume                     121.901
_citation_journal_id_ASTM        JCPSA6
_cod_data_source_file            silver2-3_202.cif
_cod_data_source_block           Ag2Tm1
_cod_original_cell_volume        121.9011
_cod_original_formula_sum        'Ag2 Tm1'
_cod_database_code               1509725
loop_
_symmetry_equiv_pos_as_xyz
x,y,z
-y,x,z
-x,-y,z
y,-x,z
x,-y,-z
y,x,-z
-x,y,-z
-y,-x,-z
-x,-y,-z
y,-x,-z
x,y,-z
-y,x,-z
-x,y,z
-y,-x,z
x,-y,z
y,x,z
x+1/2,y+1/2,z+1/2
-y+1/2,x+1/2,z+1/2
-x+1/2,-y+1/2,z+1/2
y+1/2,-x+1/2,z+1/2
x+1/2,-y+1/2,-z+1/2
y+1/2,x+1/2,-z+1/2
-x+1/2,y+1/2,-z+1/2
-y+1/2,-x+1/2,-z+1/2
-x+1/2,-y+1/2,-z+1/2
y+1/2,-x+1/2,-z+1/2
x+1/2,y+1/2,-z+1/2
-y+1/2,x+1/2,-z+1/2
-x+1/2,y+1/2,z+1/2
-y+1/2,-x+1/2,z+1/2
x+1/2,-y+1/2,z+1/2
y+1/2,x+1/2,z+1/2
loop_
_atom_site_label
_atom_site_type_symbol
_atom_site_fract_x
_atom_site_fract_y
_atom_site_fract_z
_atom_site_occupancy
_atom_site_U_iso_or_equiv
Tm1 Tm 0 0 0 1 0.0
Ag1 Ag 0 0 0.326 1 0.0
