#------------------------------------------------------------------------------
#$Date: 2016-02-14 16:26:36 +0200 (Sun, 14 Feb 2016) $
#$Revision: 176435 $
#$URL: svn://www.crystallography.net/cod/cif/1/50/97/1509724.cif $
#------------------------------------------------------------------------------
#
# This file is available in the Crystallography Open Database (COD),
# http://www.crystallography.net/
#
# All data on this site have been placed in the public domain by the
# contributors.
#
data_1509724
loop_
_publ_author_name
'Palenzona, A.'
'Cirafici, S.'
_publ_section_title
;
 The phase diagram of the Th-Ag system
;
_journal_name_full               'Journal of the Less-Common Metals'
_journal_page_first              1
_journal_page_last               4
_journal_paper_doi               10.1016/0022-5088(87)90332-8
_journal_volume                  135
_journal_year                    1987
_chemical_formula_sum            'Ag2 Th'
_chemical_name_systematic        'Ag2 Th'
_space_group_IT_number           191
_symmetry_space_group_name_Hall  '-P 6 2'
_symmetry_space_group_name_H-M   'P 6/m m m'
_cell_angle_alpha                90
_cell_angle_beta                 90
_cell_angle_gamma                120
_cell_formula_units_Z            1
_cell_length_a                   4.837
_cell_length_b                   4.837
_cell_length_c                   3.354
_cell_volume                     67.959
_citation_journal_id_ASTM        JCOMAH
_cod_data_source_file            silver2-3_201.cif
_cod_data_source_block           Ag2Th1
_cod_original_cell_volume        67.95882
_cod_original_formula_sum        'Ag2 Th1'
_cod_database_code               1509724
loop_
_symmetry_equiv_pos_as_xyz
x,y,z
x-y,x,z
-y,x-y,z
-x,-y,z
-x+y,-x,z
y,-x+y,z
-y,-x,-z
x-y,-y,-z
x,x-y,-z
y,x,-z
-x+y,y,-z
-x,-x+y,-z
-x,-y,-z
-x+y,-x,-z
y,-x+y,-z
x,y,-z
x-y,x,-z
-y,x-y,-z
y,x,z
-x+y,y,z
-x,-x+y,z
-y,-x,z
x-y,-y,z
x,x-y,z
loop_
_atom_site_label
_atom_site_type_symbol
_atom_site_fract_x
_atom_site_fract_y
_atom_site_fract_z
_atom_site_occupancy
_atom_site_U_iso_or_equiv
Th1 Th 0 0 0 1 0.0
Ag1 Ag 0.3333 0.6667 0.5 1 0.0
