#------------------------------------------------------------------------------
#$Date: 2016-02-14 06:40:26 +0200 (Sun, 14 Feb 2016) $
#$Revision: 176432 $
#$URL: svn://www.crystallography.net/cod/cif/1/50/95/1509569.cif $
#------------------------------------------------------------------------------
#
# This file is available in the Crystallography Open Database (COD),
# http://www.crystallography.net/
#
# All data on this site have been placed in the public domain by the
# contributors.
#
data_1509569
loop_
_publ_author_name
'Karlsson, N.'
_publ_section_title
;
 An X-ray study of the phases in the silver-zirconium system
;
_journal_name_full
'Acta Chemica Scandinavica (1-27,1973-42,1988)'
_journal_page_first              1424
_journal_page_last               1430
_journal_paper_doi               10.3891/acta.chem.scand.06-1424
_journal_volume                  6
_journal_year                    1952
_chemical_formula_sum            'Ag Zr'
_chemical_name_systematic        'Ag Zr'
_space_group_IT_number           129
_symmetry_space_group_name_Hall  'P 4ab 2ab -1ab'
_symmetry_space_group_name_H-M   'P 4/n m m :1'
_cell_angle_alpha                90
_cell_angle_beta                 90
_cell_angle_gamma                90
_cell_formula_units_Z            2
_cell_length_a                   3.468
_cell_length_b                   3.468
_cell_length_c                   6.603
_cell_volume                     79.414
_citation_journal_id_ASTM        ACSAA4
_cod_data_source_file            silver1-2_567.cif
_cod_data_source_block           Ag1Zr1
_cod_original_cell_volume        79.41444
_cod_original_sg_symbol_Hall     '-P 4a 2a (x-1/4,y+1/4,z)'
_cod_original_formula_sum        'Ag1 Zr1'
_cod_database_code               1509569
loop_
_symmetry_equiv_pos_as_xyz
x,y,z
-y+1/2,x+1/2,z
-x,-y,z
y+1/2,-x+1/2,z
x+1/2,-y+1/2,-z
y,x,-z
-x+1/2,y+1/2,-z
-y,-x,-z
-x+1/2,-y+1/2,-z
y,-x,-z
x+1/2,y+1/2,-z
-y,x,-z
-x,y,z
-y+1/2,-x+1/2,z
x,-y,z
y+1/2,x+1/2,z
loop_
_atom_site_label
_atom_site_type_symbol
_atom_site_fract_x
_atom_site_fract_y
_atom_site_fract_z
_atom_site_occupancy
_atom_site_U_iso_or_equiv
Ag1 Ag 0 0.5 0.105 1 0.0
Zr1 Zr 0 0.5 0.645 1 0.0
