#------------------------------------------------------------------------------
#$Date: 2016-02-14 16:26:36 +0200 (Sun, 14 Feb 2016) $
#$Revision: 176435 $
#$URL: svn://www.crystallography.net/cod/cif/1/50/93/1509342.cif $
#------------------------------------------------------------------------------
#
# This file is available in the Crystallography Open Database (COD),
# http://www.crystallography.net/
#
# All data on this site have been placed in the public domain by the
# contributors.
#
data_1509342
loop_
_publ_author_name
'Bass, P.'
'Feschotte, P.'
'Nakamura, Y.'
_publ_section_title
;
 Un nouveau compose intermetallique tres timide: Ag Ga
;
_journal_name_full               'Journal of the Less-Common Metals'
_journal_page_first              157
_journal_page_last               162
_journal_paper_doi               10.1016/0022-5088(91)90272-6
_journal_volume                  171
_journal_year                    1991
_chemical_formula_sum            'Ag Ga'
_chemical_name_systematic        'Ag Ga'
_space_group_IT_number           221
_symmetry_space_group_name_Hall  '-P 4 2 3'
_symmetry_space_group_name_H-M   'P m -3 m'
_cell_angle_alpha                90
_cell_angle_beta                 90
_cell_angle_gamma                90
_cell_formula_units_Z            1
_cell_length_a                   3.171
_cell_length_b                   3.171
_cell_length_c                   3.171
_cell_volume                     31.885
_citation_journal_id_ASTM        JCOMAH
_cod_data_source_file            silver1-2_264.cif
_cod_data_source_block           Ag1Ga1
_cod_original_cell_volume        31.88517
_cod_original_formula_sum        'Ag1 Ga1'
_cod_database_code               1509342
loop_
_symmetry_equiv_pos_as_xyz
x,y,z
-y,x,z
-x,-y,z
y,-x,z
x,-y,-z
y,x,-z
-x,y,-z
-y,-x,-z
z,x,y
-x,z,y
-z,-x,y
x,-z,y
z,-x,-y
x,z,-y
-z,x,-y
-x,-z,-y
y,z,x
y,-z,-x
z,y,-x
-y,z,-x
-z,-y,-x
-y,-z,x
z,-y,x
-z,y,x
-x,-y,-z
y,-x,-z
x,y,-z
-y,x,-z
-x,y,z
-y,-x,z
x,-y,z
y,x,z
-z,-x,-y
x,-z,-y
z,x,-y
-x,z,-y
-z,x,y
-x,-z,y
z,-x,y
x,z,y
-y,-z,-x
-y,z,x
-z,-y,x
y,-z,x
z,y,x
y,z,-x
-z,y,-x
z,-y,-x
loop_
_atom_site_label
_atom_site_type_symbol
_atom_site_fract_x
_atom_site_fract_y
_atom_site_fract_z
_atom_site_occupancy
_atom_site_U_iso_or_equiv
Ga1 Ga 0.5 0.5 0.5 1 0.0
Ag1 Ag 0 0 0 1 0.0
