#------------------------------------------------------------------------------
#$Date: 2016-02-14 16:26:36 +0200 (Sun, 14 Feb 2016) $
#$Revision: 176435 $
#$URL: svn://www.crystallography.net/cod/cif/1/50/99/1509908.cif $
#------------------------------------------------------------------------------
#
# This file is available in the Crystallography Open Database (COD),
# http://www.crystallography.net/
#
# All data on this site have been placed in the public domain by the
# contributors.
#
data_1509908
loop_
_publ_author_name
'Ferretti, M.'
'Merlo, F.'
'Bruzzone, G.'
_publ_section_title
;
 The Ba-Ag system
;
_journal_name_full               'Journal of the Less-Common Metals'
_journal_page_first              259
_journal_page_last               264
_journal_paper_doi               10.1016/0022-5088(87)90213-X
_journal_volume                  128
_journal_year                    1987
_chemical_formula_sum            'Ag5 Ba'
_chemical_name_systematic        'Ag5 Ba'
_space_group_IT_number           191
_symmetry_space_group_name_Hall  '-P 6 2'
_symmetry_space_group_name_H-M   'P 6/m m m'
_cell_angle_alpha                90
_cell_angle_beta                 90
_cell_angle_gamma                120
_cell_formula_units_Z            1
_cell_length_a                   5.803
_cell_length_b                   5.803
_cell_length_c                   4.612
_cell_volume                     134.501
_citation_journal_id_ASTM        JCOMAH
_cod_data_source_file            silver3-x_193.cif
_cod_data_source_block           Ag5Ba1
_cod_original_cell_volume        134.5009
_cod_original_formula_sum        'Ag5 Ba1'
_cod_database_code               1509908
loop_
_symmetry_equiv_pos_as_xyz
x,y,z
x-y,x,z
-y,x-y,z
-x,-y,z
-x+y,-x,z
y,-x+y,z
-y,-x,-z
x-y,-y,-z
x,x-y,-z
y,x,-z
-x+y,y,-z
-x,-x+y,-z
-x,-y,-z
-x+y,-x,-z
y,-x+y,-z
x,y,-z
x-y,x,-z
-y,x-y,-z
y,x,z
-x+y,y,z
-x,-x+y,z
-y,-x,z
x-y,-y,z
x,x-y,z
loop_
_atom_site_label
_atom_site_type_symbol
_atom_site_fract_x
_atom_site_fract_y
_atom_site_fract_z
_atom_site_occupancy
_atom_site_U_iso_or_equiv
Ba1 Ba 0 0 0 1 0.0
Ag1 Ag 0.3333 0.6667 0 1 0.0
Ag2 Ag 0.5 0 0.5 1 0.0
