#------------------------------------------------------------------------------
#$Date: 2016-02-18 17:37:37 +0200 (Thu, 18 Feb 2016) $
#$Revision: 176729 $
#$URL: svn://www.crystallography.net/cod/cif/1/50/90/1509087.cif $
#------------------------------------------------------------------------------
#
# This file is available in the Crystallography Open Database (COD),
# http://www.crystallography.net/
#
# All data on this site have been placed in the public domain by the
# contributors.
#
data_1509087
loop_
_publ_author_name
'Raynor, G.V.'
'Henderson, B.'
_publ_section_title
;
 Lattice spacings in the binary silver-cadmium system
;
_journal_name_full               'Journal of the Institute of Metals'
_journal_page_first              484
_journal_page_last               486
_journal_volume                  90
_journal_year                    1962
_chemical_formula_sum            'Ag0.05 Cd0.95'
_chemical_name_systematic        'Silver cadmium (0.05/0.95)'
_space_group_IT_number           194
_symmetry_space_group_name_Hall  '-P 6c 2c'
_symmetry_space_group_name_H-M   'P 63/m m c'
_cell_angle_alpha                90
_cell_angle_beta                 90
_cell_angle_gamma                120
_cell_formula_units_Z            2
_cell_length_a                   2.991
_cell_length_b                   2.991
_cell_length_c                   5.474
_cell_volume                     42.410
_citation_journal_id_ASTM        JIMEAP
_cod_data_source_file            silver0-1_5.cif
_cod_data_source_block           Ag0.05Cd0.95
_cod_original_cell_volume        42.41
_cod_database_code               1509087
loop_
_symmetry_equiv_pos_as_xyz
x,y,z
x-y,x,z+1/2
-y,x-y,z
-x,-y,z+1/2
-x+y,-x,z
y,-x+y,z+1/2
-y,-x,-z+1/2
x-y,-y,-z
x,x-y,-z+1/2
y,x,-z
-x+y,y,-z+1/2
-x,-x+y,-z
-x,-y,-z
-x+y,-x,-z-1/2
y,-x+y,-z
x,y,-z-1/2
x-y,x,-z
-y,x-y,-z-1/2
y,x,z-1/2
-x+y,y,z
-x,-x+y,z-1/2
-y,-x,z
x-y,-y,z-1/2
x,x-y,z
loop_
_atom_site_label
_atom_site_type_symbol
_atom_site_fract_x
_atom_site_fract_y
_atom_site_fract_z
_atom_site_occupancy
Ag1 Ag 0.3333 0.6667 0.25 0.05
Cd1 Cd 0.3333 0.6667 0.25 0.95
