#------------------------------------------------------------------------------
#$Date: 2016-02-14 16:26:36 +0200 (Sun, 14 Feb 2016) $
#$Revision: 176435 $
#$URL: svn://www.crystallography.net/cod/cif/1/50/94/1509457.cif $
#------------------------------------------------------------------------------
#
# This file is available in the Crystallography Open Database (COD),
# http://www.crystallography.net/
#
# All data on this site have been placed in the public domain by the
# contributors.
#
data_1509457
loop_
_publ_author_name
'Kinzhibalo, V.V.'
'Zarechnyuk, O.S.'
_publ_section_title
;
 Compounds of magnesium with silver and cadmium
;
_journal_name_full               'Izvestiya Akademii Nauk SSSR, Metally'
_journal_page_first              213
_journal_page_last               214
_journal_volume                  1978
_journal_year                    1978
_chemical_formula_sum            'Ag Mg'
_chemical_name_systematic        'Ag Mg'
_space_group_IT_number           221
_symmetry_space_group_name_Hall  '-P 4 2 3'
_symmetry_space_group_name_H-M   'P m -3 m'
_cell_angle_alpha                90
_cell_angle_beta                 90
_cell_angle_gamma                90
_cell_formula_units_Z            1
_cell_length_a                   3.302
_cell_length_b                   3.302
_cell_length_c                   3.302
_cell_volume                     36.002
_citation_journal_id_ASTM        IZNMAQ
_cod_data_source_file            silver1-2_414.cif
_cod_data_source_block           Ag1Mg1
_cod_original_cell_volume        36.00238
_cod_original_formula_sum        'Ag1 Mg1'
_cod_database_code               1509457
loop_
_symmetry_equiv_pos_as_xyz
x,y,z
-y,x,z
-x,-y,z
y,-x,z
x,-y,-z
y,x,-z
-x,y,-z
-y,-x,-z
z,x,y
-x,z,y
-z,-x,y
x,-z,y
z,-x,-y
x,z,-y
-z,x,-y
-x,-z,-y
y,z,x
y,-z,-x
z,y,-x
-y,z,-x
-z,-y,-x
-y,-z,x
z,-y,x
-z,y,x
-x,-y,-z
y,-x,-z
x,y,-z
-y,x,-z
-x,y,z
-y,-x,z
x,-y,z
y,x,z
-z,-x,-y
x,-z,-y
z,x,-y
-x,z,-y
-z,x,y
-x,-z,y
z,-x,y
x,z,y
-y,-z,-x
-y,z,x
-z,-y,x
y,-z,x
z,y,x
y,z,-x
-z,y,-x
z,-y,-x
loop_
_atom_site_label
_atom_site_type_symbol
_atom_site_fract_x
_atom_site_fract_y
_atom_site_fract_z
_atom_site_occupancy
_atom_site_U_iso_or_equiv
Mg1 Mg 0.5 0.5 0.5 1 0.0
Ag1 Ag 0 0 0 1 0.0
