#------------------------------------------------------------------------------
#$Date: 2016-02-14 16:26:36 +0200 (Sun, 14 Feb 2016) $
#$Revision: 176435 $
#$URL: svn://www.crystallography.net/cod/cif/1/50/92/1509296.cif $
#------------------------------------------------------------------------------
#
# This file is available in the Crystallography Open Database (COD),
# http://www.crystallography.net/
#
# All data on this site have been placed in the public domain by the
# contributors.
#
data_1509296
loop_
_publ_author_name
'Arnold, G.'
'Olsen, C.'
'Nereson, N.'
_publ_section_title
;
 Magnetic structure of DyAg
;
_journal_name_full               'Journal of Chemical Physics'
_journal_page_first              4041
_journal_page_last               4043
_journal_paper_doi               10.1063/1.1840484
_journal_volume                  46
_journal_year                    1967
_chemical_formula_sum            'Ag Dy'
_chemical_name_systematic        'Ag Dy'
_space_group_IT_number           221
_symmetry_space_group_name_Hall  '-P 4 2 3'
_symmetry_space_group_name_H-M   'P m -3 m'
_cell_angle_alpha                90
_cell_angle_beta                 90
_cell_angle_gamma                90
_cell_formula_units_Z            1
_cell_length_a                   3.607
_cell_length_b                   3.607
_cell_length_c                   3.607
_cell_volume                     46.929
_citation_journal_id_ASTM        JCPSA6
_cod_data_source_file            silver1-2_205.cif
_cod_data_source_block           Ag1Dy1
_cod_original_cell_volume        46.9287
_cod_original_formula_sum        'Ag1 Dy1'
_cod_database_code               1509296
loop_
_symmetry_equiv_pos_as_xyz
x,y,z
-y,x,z
-x,-y,z
y,-x,z
x,-y,-z
y,x,-z
-x,y,-z
-y,-x,-z
z,x,y
-x,z,y
-z,-x,y
x,-z,y
z,-x,-y
x,z,-y
-z,x,-y
-x,-z,-y
y,z,x
y,-z,-x
z,y,-x
-y,z,-x
-z,-y,-x
-y,-z,x
z,-y,x
-z,y,x
-x,-y,-z
y,-x,-z
x,y,-z
-y,x,-z
-x,y,z
-y,-x,z
x,-y,z
y,x,z
-z,-x,-y
x,-z,-y
z,x,-y
-x,z,-y
-z,x,y
-x,-z,y
z,-x,y
x,z,y
-y,-z,-x
-y,z,x
-z,-y,x
y,-z,x
z,y,x
y,z,-x
-z,y,-x
z,-y,-x
loop_
_atom_site_label
_atom_site_type_symbol
_atom_site_fract_x
_atom_site_fract_y
_atom_site_fract_z
_atom_site_occupancy
_atom_site_U_iso_or_equiv
Dy1 Dy 0.5 0.5 0.5 1 0.0
Ag1 Ag 0 0 0 1 0.0
