#------------------------------------------------------------------------------
#$Date: 2016-02-14 16:26:36 +0200 (Sun, 14 Feb 2016) $
#$Revision: 176435 $
#$URL: svn://www.crystallography.net/cod/cif/1/50/93/1509303.cif $
#------------------------------------------------------------------------------
#
# This file is available in the Crystallography Open Database (COD),
# http://www.crystallography.net/
#
# All data on this site have been placed in the public domain by the
# contributors.
#
data_1509303
loop_
_publ_author_name
'Gebhardt, E.'
'Elssner, I.'
'Hoehler, J.'
_publ_section_title
;
 Das System Silber-Erbium
;
_journal_name_full               'Journal of the Less-Common Metals'
_journal_page_first              329
_journal_page_last               335
_journal_paper_doi               10.1016/0022-5088(69)90178-7
_journal_volume                  19
_journal_year                    1969
_chemical_formula_sum            'Ag Er'
_chemical_name_systematic        'Ag Er'
_space_group_IT_number           221
_symmetry_space_group_name_Hall  '-P 4 2 3'
_symmetry_space_group_name_H-M   'P m -3 m'
_cell_angle_alpha                90
_cell_angle_beta                 90
_cell_angle_gamma                90
_cell_formula_units_Z            1
_cell_length_a                   3.574
_cell_length_b                   3.574
_cell_length_c                   3.574
_cell_volume                     45.652
_citation_journal_id_ASTM        JCOMAH
_cod_data_source_file            silver1-2_213.cif
_cod_data_source_block           Ag1Er1
_cod_original_cell_volume        45.6524
_cod_original_formula_sum        'Ag1 Er1'
_cod_database_code               1509303
loop_
_symmetry_equiv_pos_as_xyz
x,y,z
-y,x,z
-x,-y,z
y,-x,z
x,-y,-z
y,x,-z
-x,y,-z
-y,-x,-z
z,x,y
-x,z,y
-z,-x,y
x,-z,y
z,-x,-y
x,z,-y
-z,x,-y
-x,-z,-y
y,z,x
y,-z,-x
z,y,-x
-y,z,-x
-z,-y,-x
-y,-z,x
z,-y,x
-z,y,x
-x,-y,-z
y,-x,-z
x,y,-z
-y,x,-z
-x,y,z
-y,-x,z
x,-y,z
y,x,z
-z,-x,-y
x,-z,-y
z,x,-y
-x,z,-y
-z,x,y
-x,-z,y
z,-x,y
x,z,y
-y,-z,-x
-y,z,x
-z,-y,x
y,-z,x
z,y,x
y,z,-x
-z,y,-x
z,-y,-x
loop_
_atom_site_label
_atom_site_type_symbol
_atom_site_fract_x
_atom_site_fract_y
_atom_site_fract_z
_atom_site_occupancy
_atom_site_U_iso_or_equiv
Ag1 Ag 0 0 0 1 0.0
Er1 Er 0.5 0.5 0.5 1 0.0
