#------------------------------------------------------------------------------
#$Date: 2016-02-18 17:37:37 +0200 (Thu, 18 Feb 2016) $
#$Revision: 176729 $
#$URL: svn://www.crystallography.net/cod/cif/1/50/90/1509035.cif $
#------------------------------------------------------------------------------
#
# This file is available in the Crystallography Open Database (COD),
# http://www.crystallography.net/
#
# All data on this site have been placed in the public domain by the
# contributors.
#
data_1509035
loop_
_publ_author_name
'Massalski, T.B.'
'King, H.W.'
_publ_section_title
;
 Lattice spacing relationships and the electronic structure of hcp zeta
 phases based on silver
;
_journal_name_full               'Journal of the Less-Common Metals'
_journal_page_first              157
_journal_page_last               162
_journal_paper_doi               10.1016/0022-5088(91)90272-6
_journal_volume                  171
_journal_year                    1991
_chemical_formula_sum            'Ag0.75 Ga0.25'
_chemical_name_systematic        'Silver gallium (0.75/0.25)'
_space_group_IT_number           194
_symmetry_space_group_name_Hall  '-P 6c 2c'
_symmetry_space_group_name_H-M   'P 63/m m c'
_cell_angle_alpha                90
_cell_angle_beta                 90
_cell_angle_gamma                120
_cell_formula_units_Z            2
_cell_length_a                   2.8869
_cell_length_b                   2.8869
_cell_length_c                   4.6753
_cell_volume                     33.745
_citation_journal_id_ASTM        JCOMAH
_cod_data_source_file            silver0-1_163.cif
_cod_data_source_block           Ag0.75Ga0.25
_cod_original_cell_volume        33.74454
_cod_database_code               1509035
loop_
_symmetry_equiv_pos_as_xyz
x,y,z
x-y,x,z+1/2
-y,x-y,z
-x,-y,z+1/2
-x+y,-x,z
y,-x+y,z+1/2
-y,-x,-z+1/2
x-y,-y,-z
x,x-y,-z+1/2
y,x,-z
-x+y,y,-z+1/2
-x,-x+y,-z
-x,-y,-z
-x+y,-x,-z-1/2
y,-x+y,-z
x,y,-z-1/2
x-y,x,-z
-y,x-y,-z-1/2
y,x,z-1/2
-x+y,y,z
-x,-x+y,z-1/2
-y,-x,z
x-y,-y,z-1/2
x,x-y,z
loop_
_atom_site_label
_atom_site_type_symbol
_atom_site_fract_x
_atom_site_fract_y
_atom_site_fract_z
_atom_site_occupancy
Ga1 Ga 0.3333 0.6667 0.25 0.25
Ag1 Ag 0.3333 0.6667 0.25 0.75
