#------------------------------------------------------------------------------
#$Date: 2016-03-02 09:51:31 +0200 (Wed, 02 Mar 2016) $
#$Revision: 177123 $
#$URL: svn://www.crystallography.net/cod/cif/5/91/00/5910085.cif $
#------------------------------------------------------------------------------
#
# This file is available in the Crystallography Open Database (COD),
# http://www.crystallography.net/
#
# All data on this site have been placed in the public domain by the
# contributors.
#
data_5910085
_journal_name_full               'The second edition of Structure of Crystals'
_journal_page_first              232
_journal_page_last               238
_chemical_formula_structural     PtS2
_chemical_formula_sum            'Pt S2'
_chemical_name_systematic        'Platinum sulphide'
_symmetry_cell_setting           hexagonal
_symmetry_space_group_name_H-M   'P -3 m 1'
_audit_creation_date             2005-02-11
_audit_creation_method
;
Pages 232 & 238 from the second edition of Structure of Crystals by RWG Wyckoff
and http://physics.syr.edu/courses/vrml
;
_audit_update_record
'created by Girish Upreti, Portland State University'
_cell_angle_alpha                90
_cell_angle_beta                 90
_cell_angle_gamma                120
_cell_length_a                   3.53
_cell_length_b                   3.53
_cell_length_c                   5.01
_cell_volume                     54.065
_cod_original_sg_symbol_H-M      'P a -3 m 1'
_cod_database_code               5910085
loop_
_atom_site_fract_x
_atom_site_fract_y
_atom_site_fract_z
_atom_site_label
0.000000 0.000000 0.00000 Pt
0.333333 0.666667 0.24920 S
