#------------------------------------------------------------------------------
#$Date: 2016-03-02 09:51:31 +0200 (Wed, 02 Mar 2016) $
#$Revision: 177123 $
#$URL: svn://www.crystallography.net/cod/cif/5/91/00/5910099.cif $
#------------------------------------------------------------------------------
#
# This file is available in the Crystallography Open Database (COD),
# http://www.crystallography.net/
#
# All data on this site have been placed in the public domain by the
# contributors.
#
data_5910099
loop_
_publ_author_name
'Wyckoff, R. W. G.'
_publ_section_title
;
Page 261 from the second edition of Structure of Crystals by Wyckoff  
published by The Chemical Catalog Company, INC, New York in 1931 
& http://www.crystallography.net/
;
_journal_name_full               'The second edition of Structure of Crystals'
_journal_page_first              261
_journal_page_last               261
_journal_year                    1931
_chemical_formula_structural     ZrCl4
_chemical_formula_sum            'Cl4 Zr'
_space_group_IT_number           205
_symmetry_cell_setting           cubic
_symmetry_Int_Tables_number      205
_symmetry_space_group_name_Hall  '-P 2ac 2ab 3'
_symmetry_space_group_name_H-M   'P a -3'
_audit_creation_date             2005-28-12
_audit_creation_method
;
Page 261 from the second edition of Structure of Crystals by Wyckoff  
published by The Chemical Catalog Company, INC, New York in 1931 
& http://www.crystallography.net/
;
_audit_update_record
'created by Girish Upreti, Portland State University'
_cell_angle_alpha                90
_cell_angle_beta                 90
_cell_angle_gamma                90
_cell_length_a                   10.32
_cell_length_b                   10.32
_cell_length_c                   10.32
_cell_volume                     1099.105
_cod_original_formula_sum        'Zr Cl4'
_cod_database_code               5910099
loop_
_symmetry_equiv_pos_as_xyz
x,y,z
z,x,y
y,z,x
-y+1/2,-z,x+1/2
z+1/2,-x+1/2,-y
-y,z+1/2,-x+1/2
-z+1/2,-x,y+1/2
-z,x+1/2,-y+1/2
y+1/2,-z+1/2,-x
x+1/2,-y+1/2,-z
-x,y+1/2,-z+1/2
-x+1/2,-y,z+1/2
-x,-y,-z
-z,-x,-y
-y,-z,-x
y+1/2,z,-x+1/2
-z+1/2,x+1/2,y
y,-z+1/2,x+1/2
z+1/2,x,-y+1/2
z,-x+1/2,y+1/2
-y+1/2,z+1/2,x
-x+1/2,y+1/2,z
x,-y+1/2,z+1/2
x+1/2,y,-z+1/2
loop_
_atom_site_fract_x
_atom_site_fract_y
_atom_site_fract_z
_atom_site_label
0.12900 0.12900 0.12900 Zr
0.25300 0.25300 0.25300 Cl1
0.00900 0.00100 0.25300 Cl2
