#------------------------------------------------------------------------------
#$Date: 2016-03-23 15:55:00 +0200 (Wed, 23 Mar 2016) $
#$Revision: 179353 $
#$URL: svn://www.crystallography.net/cod/cif/4/32/50/4325075.cif $
#------------------------------------------------------------------------------
#
# This file is available in the Crystallography Open Database (COD),
# http://www.crystallography.net/
#
# All data on this site have been placed in the public domain by the
# contributors.
#
data_4325075
loop_
_publ_author_name
'Ying Liang'
'Bodo B\"ohme'
'Marianne Reibold'
'Walter Schnelle'
'Ulrich Schwarz'
'Michael Baitinger'
'Hannes Lichte'
'Yuri Grin'
_publ_contact_author_address
;
Max-Planck-Institut f\"ur Chemische Physik fester Stoffe
N\"othnitzer Str. 40
D-01187 Dresden
Germany
;
_publ_contact_author_email       grin@cpfs.mpg.de
_publ_contact_author_fax         49(351)46464002
_publ_contact_author_name        'Yuri Grin'
_publ_contact_author_phone       49(351)46464000
_publ_section_title
;
 Synthesis of the Clathrate-I Phase Ba8-xSi46 via Redox Reactions
;
_journal_name_full               'Inorganic Chemistry'
_journal_page_first              4523
_journal_page_last               4528
_journal_paper_doi               10.1021/ic2001859
_journal_volume                  50
_journal_year                    2011
_chemical_formula_sum            'Ba6.62 Si46'
_chemical_formula_weight         2201.04
_space_group_crystal_system      cubic
_space_group_IT_number           223
_space_group_name_Hall           '-P 4n 2 3'
_space_group_name_H-M_alt        'P m -3 n'
_symmetry_space_group_name_Hall  '-P 4n 2 3'
_symmetry_space_group_name_H-M   'P m -3 n'
_audit_creation_method           'WinCSD program'
_cell_angle_alpha                90
_cell_angle_beta                 90
_cell_angle_gamma                90
_cell_formula_units_Z            1
_cell_length_a                   10.2816(6)
_cell_length_b                   10.2816(6)
_cell_length_c                   10.2816(6)
_cell_measurement_radiation      CuK\a1
_cell_measurement_temperature    295(2)
_cell_measurement_theta_max      50
_cell_measurement_theta_min      2.5
_cell_measurement_wavelength     1.54056
_cell_volume                     1086.88(11)
_computing_cell_refinement       'WinCSD (Akselrud et al, 1993)'
_computing_publication_material
;
WinCSD (Akselrud et al, 1993)
L.G. Akselrud, P.Yu. Zavalii, Yu.N. Grin, 
V.K. Pecharsky, B. Baumgartner, E. W\"olfel,
(1993) Materials Science Forum, 133-136, 335-340
;
_computing_structure_refinement  'WinCSD (Akselrud et al, 1993)'
_computing_structure_solution    'WinCSD (Akselrud et al, 1993)'
_diffrn_ambient_environment      air
_diffrn_ambient_temperature      295(2)
_diffrn_measurement_device       'STOE STADI P diffractometer'
_diffrn_radiation_monochromator  'Ge 111 crystal'
_diffrn_radiation_probe          x-ray
_diffrn_radiation_wavelength     1.54056
_exptl_absorpt_coefficient_mu    57.82
_exptl_crystal_density_diffrn    3.364
_exptl_crystal_F_000             1013.7
_pd_char_colour                  dark-grey
_pd_char_particle_morphology     irregular
_pd_meas_2theta_range_max        119
_pd_meas_2theta_range_min        5
_pd_meas_number_of_points        5750
_pd_proc_ls_profile_function     pseudo-Voit
_pd_proc_ls_prof_R_factor        0.3504
_pd_proc_ls_prof_wR_factor       0.1145
_pd_spec_mounting                'packed powder pellet'
_pd_spec_mount_mode              reflection
_pd_spec_shape                   flat_sheet
_refine_ls_extinction_method     none
_refine_ls_hydrogen_treatment    noref
_refine_ls_matrix_type           fullcycle
_refine_ls_number_parameters     17
_refine_ls_R_I_factor            0.1217
_refine_ls_shift/su_max
;
;
_refine_ls_structure_factor_coef Inet
_refine_ls_weighting_details     1/[Y~i~+\s(Y~i~)]
_refine_ls_weighting_scheme      sigma
_reflns_number_total             164
_cod_data_source_file            ic2001859_si_005.cif
_cod_data_source_block           Ba6.62Si46
_cod_original_cell_volume        1086.9(1)
_cod_database_code               4325075
loop_
_symmetry_equiv_pos_as_xyz
x,y,z
z,x,y
y,z,x
x,y,-z
z,x,-y
y,z,-x
-x,y,z
-z,x,y
-y,z,x
-x,y,-z
-z,x,-y
-y,z,-x
1/2+y,1/2+x,1/2+z
1/2+x,1/2+z,1/2+y
1/2+z,1/2+y,1/2+x
1/2+y,1/2+x,1/2-z
1/2+x,1/2+z,1/2-y
1/2+z,1/2+y,1/2-x
1/2+y,1/2-x,1/2+z
1/2+x,1/2-z,1/2+y
1/2+z,1/2-y,1/2+x
1/2+y,1/2-x,1/2-z
1/2+x,1/2-z,1/2-y
1/2+z,1/2-y,1/2-x
-x,-y,-z
-z,-x,-y
-y,-z,-x
-x,-y,z
-z,-x,y
-y,-z,x
x,-y,-z
z,-x,-y
y,-z,-x
x,-y,z
z,-x,y
y,-z,x
-1/2-y,-1/2-x,-1/2-z
-1/2-x,-1/2-z,-1/2-y
-1/2-z,-1/2-y,-1/2-x
-1/2-y,-1/2-x,-1/2+z
-1/2-x,-1/2-z,-1/2+y
-1/2-z,-1/2-y,-1/2+x
-1/2-y,-1/2+x,-1/2-z
-1/2-x,-1/2+z,-1/2-y
-1/2-z,-1/2+y,-1/2-x
-1/2-y,-1/2+x,-1/2+z
-1/2-x,-1/2+z,-1/2+y
-1/2-z,-1/2+y,-1/2+x
loop_
_atom_site_label
_atom_site_fract_x
_atom_site_fract_y
_atom_site_fract_z
_atom_site_thermal_displace_type
_atom_site_U_iso_or_equiv
_atom_site_symmetry_multiplicity
_atom_site_type_symbol
_atom_site_occupancy
Ba1 0 0 0 Uiso 0.035(11) 2 Ba 0.310(11)
Ba2 0.25 0.5 0 Uiso 0.0222(15) 6 Ba 1.
Si1 0.25 0 0.5 Uiso 0.013(5) 6 Si 1.
Si2 0.1843(6) 0.1843(6) 0.1843(6) Uiso 0.021(4) 16 Si 1.
Si3 0 0.3038(8) 0.1205(8) Uiso 0.010(3) 24 Si 1.
loop_
_atom_type_symbol
_atom_type_description
_atom_type_number_in_cell
_atom_type_scat_dispersion_real
_atom_type_scat_dispersion_imag
_atom_type_scat_source
Ba Ba 6.62 -1.334 8.460 International_Tables_Vol_IV_Table_2.3.1
Si Si 46.00 0.244 0.330 International_Tables_Vol_IV_Table_2.3.1
loop_
_diffrn_radiation_type
CuK\a~1~
loop_
_geom_angle_atom_site_label_1
_geom_angle_atom_site_label_2
_geom_angle_atom_site_label_3
_geom_angle
_geom_angle_site_symmetry_1
_geom_angle_site_symmetry_3
_geom_angle_publ_flag
Si2 Ba1 Si2 70.53(15) . 4_555 no
Si2 Ba1 Si2 70.53(15) . 7_555 no
Si2 Ba1 Si2 109.47(15) . 10_555 no
Si2 Ba1 Si2 180.00(15) . 25_555 no
Si2 Ba1 Si2 109.47(15) . 28_555 no
Si2 Ba1 Si2 109.47(15) . 31_555 no
Si2 Ba1 Si2 70.53(15) . 34_555 no
Si2 Ba1 Si3 41.5(2) . . no
Si2 Ba1 Si3 41.5(2) . 2_555 no
Si2 Ba1 Si3 41.5(2) . 3_555 no
Si2 Ba1 Si3 71.1(2) . 4_555 no
Si2 Ba1 Si3 108.9(2) . 5_555 no
Si2 Ba1 Si3 71.1(2) . 8_555 no
Si2 Ba1 Si3 108.9(2) . 9_555 no
Si2 Ba1 Si3 138.5(2) . 11_555 no
Si2 Ba1 Si3 138.5(2) . 25_555 no
Si2 Ba1 Si3 138.5(2) . 27_555 no
Si2 Ba1 Si3 108.9(2) . 28_555 no
Si2 Ba1 Si3 71.1(2) . 33_555 no
Si2 Ba1 Si2 109.47(15) 4_555 7_555 no
Si2 Ba1 Si2 70.53(15) 4_555 10_555 no
Si2 Ba1 Si2 109.47(15) 4_555 25_555 no
Si2 Ba1 Si2 180.00(15) 4_555 28_555 no
Si2 Ba1 Si2 70.53(15) 4_555 31_555 no
Si2 Ba1 Si2 109.47(15) 4_555 34_555 no
Si2 Ba1 Si3 71.1(2) 4_555 . no
Si2 Ba1 Si3 108.9(2) 4_555 2_555 no
Si2 Ba1 Si3 41.5(2) 4_555 3_555 no
Si2 Ba1 Si3 41.5(2) 4_555 4_555 no
Si2 Ba1 Si3 41.5(2) 4_555 5_555 no
Si2 Ba1 Si3 138.5(2) 4_555 8_555 no
Si2 Ba1 Si3 108.9(2) 4_555 9_555 no
Si2 Ba1 Si3 71.1(2) 4_555 11_555 no
Si2 Ba1 Si3 108.9(2) 4_555 25_555 no
Si2 Ba1 Si3 138.5(2) 4_555 27_555 no
Si2 Ba1 Si3 138.5(2) 4_555 28_555 no
Si2 Ba1 Si3 71.1(2) 4_555 33_555 no
Si2 Ba1 Si2 70.53(15) 7_555 10_555 no
Si2 Ba1 Si2 109.47(15) 7_555 25_555 no
Si2 Ba1 Si2 70.53(15) 7_555 28_555 no
Si2 Ba1 Si2 180.00(15) 7_555 31_555 no
Si2 Ba1 Si2 109.47(15) 7_555 34_555 no
Si2 Ba1 Si3 41.5(2) 7_555 . no
Si2 Ba1 Si3 71.1(2) 7_555 2_555 no
Si2 Ba1 Si3 108.9(2) 7_555 3_555 no
Si2 Ba1 Si3 71.1(2) 7_555 4_555 no
Si2 Ba1 Si3 138.5(2) 7_555 5_555 no
Si2 Ba1 Si3 41.5(2) 7_555 8_555 no
Si2 Ba1 Si3 41.5(2) 7_555 9_555 no
Si2 Ba1 Si3 108.9(2) 7_555 11_555 no
Si2 Ba1 Si3 138.5(2) 7_555 25_555 no
Si2 Ba1 Si3 71.1(2) 7_555 27_555 no
Si2 Ba1 Si3 108.9(2) 7_555 28_555 no
Si2 Ba1 Si3 138.5(2) 7_555 33_555 no
Si2 Ba1 Si2 70.53(15) 10_555 25_555 no
Si2 Ba1 Si2 109.47(15) 10_555 28_555 no
Si2 Ba1 Si2 109.47(15) 10_555 31_555 no
Si2 Ba1 Si2 180.00(15) 10_555 34_555 no
Si2 Ba1 Si3 71.1(2) 10_555 . no
Si2 Ba1 Si3 138.5(2) 10_555 2_555 no
Si2 Ba1 Si3 108.9(2) 10_555 3_555 no
Si2 Ba1 Si3 41.5(2) 10_555 4_555 no
Si2 Ba1 Si3 71.1(2) 10_555 5_555 no
Si2 Ba1 Si3 108.9(2) 10_555 8_555 no
Si2 Ba1 Si3 41.5(2) 10_555 9_555 no
Si2 Ba1 Si3 41.5(2) 10_555 11_555 no
Si2 Ba1 Si3 108.9(2) 10_555 25_555 no
Si2 Ba1 Si3 71.1(2) 10_555 27_555 no
Si2 Ba1 Si3 138.5(2) 10_555 28_555 no
Si2 Ba1 Si3 138.5(2) 10_555 33_555 no
Si2 Ba1 Si2 70.53(15) 25_555 28_555 no
Si2 Ba1 Si2 70.53(15) 25_555 31_555 no
Si2 Ba1 Si2 109.47(15) 25_555 34_555 no
Si2 Ba1 Si3 138.5(2) 25_555 . no
Si2 Ba1 Si3 138.5(2) 25_555 2_555 no
Si2 Ba1 Si3 138.5(2) 25_555 3_555 no
Si2 Ba1 Si3 108.9(2) 25_555 4_555 no
Si2 Ba1 Si3 71.1(2) 25_555 5_555 no
Si2 Ba1 Si3 108.9(2) 25_555 8_555 no
Si2 Ba1 Si3 71.1(2) 25_555 9_555 no
Si2 Ba1 Si3 41.5(2) 25_555 11_555 no
Si2 Ba1 Si3 41.5(2) 25_555 25_555 no
Si2 Ba1 Si3 41.5(2) 25_555 27_555 no
Si2 Ba1 Si3 71.1(2) 25_555 28_555 no
Si2 Ba1 Si3 108.9(2) 25_555 33_555 no
Si2 Ba1 Si2 109.47(15) 28_555 31_555 no
Si2 Ba1 Si2 70.53(15) 28_555 34_555 no
Si2 Ba1 Si3 108.9(2) 28_555 . no
Si2 Ba1 Si3 71.1(2) 28_555 2_555 no
Si2 Ba1 Si3 138.5(2) 28_555 3_555 no
Si2 Ba1 Si3 138.5(2) 28_555 4_555 no
Si2 Ba1 Si3 138.5(2) 28_555 5_555 no
Si2 Ba1 Si3 41.5(2) 28_555 8_555 no
Si2 Ba1 Si3 71.1(2) 28_555 9_555 no
Si2 Ba1 Si3 108.9(2) 28_555 11_555 no
Si2 Ba1 Si3 71.1(2) 28_555 25_555 no
Si2 Ba1 Si3 41.5(2) 28_555 27_555 no
Si2 Ba1 Si3 41.5(2) 28_555 28_555 no
Si2 Ba1 Si3 108.9(2) 28_555 33_555 no
Si2 Ba1 Si2 70.53(15) 31_555 34_555 no
Si2 Ba1 Si3 138.5(2) 31_555 . no
Si2 Ba1 Si3 108.9(2) 31_555 2_555 no
Si2 Ba1 Si3 71.1(2) 31_555 3_555 no
Si2 Ba1 Si3 108.9(2) 31_555 4_555 no
Si2 Ba1 Si3 41.5(2) 31_555 5_555 no
Si2 Ba1 Si3 138.5(2) 31_555 8_555 no
Si2 Ba1 Si3 138.5(2) 31_555 9_555 no
Si2 Ba1 Si3 71.1(2) 31_555 11_555 no
Si2 Ba1 Si3 41.5(2) 31_555 25_555 no
Si2 Ba1 Si3 108.9(2) 31_555 27_555 no
Si2 Ba1 Si3 71.1(2) 31_555 28_555 no
Si2 Ba1 Si3 41.5(2) 31_555 33_555 no
Si2 Ba1 Si3 108.9(2) 34_555 . no
Si2 Ba1 Si3 41.5(2) 34_555 2_555 no
Si2 Ba1 Si3 71.1(2) 34_555 3_555 no
Si2 Ba1 Si3 138.5(2) 34_555 4_555 no
Si2 Ba1 Si3 108.9(2) 34_555 5_555 no
Si2 Ba1 Si3 71.1(2) 34_555 8_555 no
Si2 Ba1 Si3 138.5(2) 34_555 9_555 no
Si2 Ba1 Si3 138.5(2) 34_555 11_555 no
Si2 Ba1 Si3 71.1(2) 34_555 25_555 no
Si2 Ba1 Si3 108.9(2) 34_555 27_555 no
Si2 Ba1 Si3 41.5(2) 34_555 28_555 no
Si2 Ba1 Si3 41.5(2) 34_555 33_555 no
Si3 Ba1 Si3 70.0(2) . 2_555 no
Si3 Ba1 Si3 70.0(2) . 3_555 no
Si3 Ba1 Si3 43.3(2) . 4_555 no
Si3 Ba1 Si3 110.0(2) . 5_555 no
Si3 Ba1 Si3 70.0(2) . 8_555 no
Si3 Ba1 Si3 70.0(2) . 9_555 no
Si3 Ba1 Si3 110.0(2) . 11_555 no
Si3 Ba1 Si3 180.0(2) . 25_555 no
Si3 Ba1 Si3 110.0(2) . 27_555 no
Si3 Ba1 Si3 136.7(2) . 28_555 no
Si3 Ba1 Si3 110.0(2) . 33_555 no
Si3 Ba1 Si3 70.0(2) 2_555 3_555 no
Si3 Ba1 Si3 110.0(2) 2_555 4_555 no
Si3 Ba1 Si3 136.7(2) 2_555 5_555 no
Si3 Ba1 Si3 43.3(2) 2_555 8_555 no
Si3 Ba1 Si3 110.0(2) 2_555 9_555 no
Si3 Ba1 Si3 180.0(2) 2_555 11_555 no
Si3 Ba1 Si3 110.0(2) 2_555 25_555 no
Si3 Ba1 Si3 110.0(2) 2_555 27_555 no
Si3 Ba1 Si3 70.0(2) 2_555 28_555 no
Si3 Ba1 Si3 70.0(2) 2_555 33_555 no
Si3 Ba1 Si3 70.0(2) 3_555 4_555 no
Si3 Ba1 Si3 70.0(2) 3_555 5_555 no
Si3 Ba1 Si3 110.0(2) 3_555 8_555 no
Si3 Ba1 Si3 136.7(2) 3_555 9_555 no
Si3 Ba1 Si3 110.0(2) 3_555 11_555 no
Si3 Ba1 Si3 110.0(2) 3_555 25_555 no
Si3 Ba1 Si3 180.0(2) 3_555 27_555 no
Si3 Ba1 Si3 110.0(2) 3_555 28_555 no
Si3 Ba1 Si3 43.3(2) 3_555 33_555 no
Si3 Ba1 Si3 70.0(2) 4_555 5_555 no
Si3 Ba1 Si3 110.0(2) 4_555 8_555 no
Si3 Ba1 Si3 70.0(2) 4_555 9_555 no
Si3 Ba1 Si3 70.0(2) 4_555 11_555 no
Si3 Ba1 Si3 136.7(2) 4_555 25_555 no
Si3 Ba1 Si3 110.0(2) 4_555 27_555 no
Si3 Ba1 Si3 180.0(2) 4_555 28_555 no
Si3 Ba1 Si3 110.0(2) 4_555 33_555 no
Si3 Ba1 Si3 180.0(2) 5_555 8_555 no
Si3 Ba1 Si3 110.0(2) 5_555 9_555 no
Si3 Ba1 Si3 43.3(2) 5_555 11_555 no
Si3 Ba1 Si3 70.0(2) 5_555 25_555 no
Si3 Ba1 Si3 110.0(2) 5_555 27_555 no
Si3 Ba1 Si3 110.0(2) 5_555 28_555 no
Si3 Ba1 Si3 70.0(2) 5_555 33_555 no
Si3 Ba1 Si3 70.0(2) 8_555 9_555 no
Si3 Ba1 Si3 136.7(2) 8_555 11_555 no
Si3 Ba1 Si3 110.0(2) 8_555 25_555 no
Si3 Ba1 Si3 70.0(2) 8_555 27_555 no
Si3 Ba1 Si3 70.0(2) 8_555 28_555 no
Si3 Ba1 Si3 110.0(2) 8_555 33_555 no
Si3 Ba1 Si3 70.0(2) 9_555 11_555 no
Si3 Ba1 Si3 110.0(2) 9_555 25_555 no
Si3 Ba1 Si3 43.3(2) 9_555 27_555 no
Si3 Ba1 Si3 110.0(2) 9_555 28_555 no
Si3 Ba1 Si3 180.0(2) 9_555 33_555 no
Si3 Ba1 Si3 70.0(2) 11_555 25_555 no
Si3 Ba1 Si3 70.0(2) 11_555 27_555 no
Si3 Ba1 Si3 110.0(2) 11_555 28_555 no
Si3 Ba1 Si3 110.0(2) 11_555 33_555 no
Si3 Ba1 Si3 70.0(2) 25_555 27_555 no
Si3 Ba1 Si3 43.3(2) 25_555 28_555 no
Si3 Ba1 Si3 70.0(2) 25_555 33_555 no
Si3 Ba1 Si3 70.0(2) 27_555 28_555 no
Si3 Ba1 Si3 136.7(2) 27_555 33_555 no
Si3 Ba1 Si3 70.0(2) 28_555 33_555 no
Si3 Ba2 Si3 41.5(2) . 4_555 no
Si3 Ba2 Si3 161.9(2) . 14_554 no
Si3 Ba2 Si3 122.8(2) . 17_555 no
Si3 Ba2 Si3 122.8(2) . 20_554 no
Si3 Ba2 Si3 97.6(2) . 23_555 no
Si3 Ba2 Si3 85.3(2) . 25_565 no
Si3 Ba2 Si3 70.5(2) . 28_565 no
Si3 Ba2 Si1 96.43(11) . 2_555 no
Si3 Ba2 Si1 39.57(11) . 3_555 no
Si3 Ba2 Si1 74.37(11) . 6_555 no
Si3 Ba2 Si1 158.17(11) . 13_554 no
Si3 Ba2 Si2 37.19(14) . . no
Si3 Ba2 Si2 63.59(15) . 4_555 no
Si3 Ba2 Si2 122.44(15) . 31_565 no
Si3 Ba2 Si2 100.64(15) . 34_565 no
Si3 Ba2 Si2 62.76(15) . 37_666 no
Si3 Ba2 Si2 98.34(15) . 40_665 no
Si3 Ba2 Si2 96.61(15) . 43_666 no
Si3 Ba2 Si2 135.88(15) . 46_665 no
Si3 Ba2 Si3 62.08(15) . 3_555 no
Si3 Ba2 Si3 132.44(15) . 33_565 no
Si3 Ba2 Si3 62.98(15) . 37_666 no
Si3 Ba2 Si3 104.34(15) . 40_665 no
Si3 Ba2 Si3 122.8(2) 4_555 14_554 no
Si3 Ba2 Si3 161.9(2) 4_555 17_555 no
Si3 Ba2 Si3 97.6(2) 4_555 20_554 no
Si3 Ba2 Si3 122.8(2) 4_555 23_555 no
Si3 Ba2 Si3 70.5(2) 4_555 25_565 no
Si3 Ba2 Si3 85.3(2) 4_555 28_565 no
Si3 Ba2 Si1 96.43(11) 4_555 2_555 no
Si3 Ba2 Si1 74.37(11) 4_555 3_555 no
Si3 Ba2 Si1 39.57(11) 4_555 6_555 no
Si3 Ba2 Si1 158.17(11) 4_555 13_554 no
Si3 Ba2 Si2 63.59(15) 4_555 . no
Si3 Ba2 Si2 37.19(14) 4_555 4_555 no
Si3 Ba2 Si2 100.64(15) 4_555 31_565 no
Si3 Ba2 Si2 122.44(15) 4_555 34_565 no
Si3 Ba2 Si2 98.34(15) 4_555 37_666 no
Si3 Ba2 Si2 62.76(15) 4_555 40_665 no
Si3 Ba2 Si2 135.88(15) 4_555 43_666 no
Si3 Ba2 Si2 96.61(15) 4_555 46_665 no
Si3 Ba2 Si3 62.08(15) 4_555 3_555 no
Si3 Ba2 Si3 132.44(15) 4_555 33_565 no
Si3 Ba2 Si3 104.34(15) 4_555 37_666 no
Si3 Ba2 Si3 62.98(15) 4_555 40_665 no
Si3 Ba2 Si3 70.5(2) 14_554 17_555 no
Si3 Ba2 Si3 41.5(2) 14_554 20_554 no
Si3 Ba2 Si3 85.3(2) 14_554 23_555 no
Si3 Ba2 Si3 97.6(2) 14_554 25_565 no
Si3 Ba2 Si3 122.8(2) 14_554 28_565 no
Si3 Ba2 Si1 74.37(11) 14_554 2_555 no
Si3 Ba2 Si1 158.17(11) 14_554 3_555 no
Si3 Ba2 Si1 96.43(11) 14_554 6_555 no
Si3 Ba2 Si1 39.57(11) 14_554 13_554 no
Si3 Ba2 Si2 135.88(15) 14_554 . no
Si3 Ba2 Si2 98.34(15) 14_554 4_555 no
Si3 Ba2 Si2 62.76(15) 14_554 31_565 no
Si3 Ba2 Si2 96.61(15) 14_554 34_565 no
Si3 Ba2 Si2 122.44(15) 14_554 37_666 no
Si3 Ba2 Si2 63.59(15) 14_554 40_665 no
Si3 Ba2 Si2 100.64(15) 14_554 43_666 no
Si3 Ba2 Si2 37.19(14) 14_554 46_665 no
Si3 Ba2 Si3 104.34(15) 14_554 3_555 no
Si3 Ba2 Si3 62.98(15) 14_554 33_565 no
Si3 Ba2 Si3 132.44(15) 14_554 37_666 no
Si3 Ba2 Si3 62.08(15) 14_554 40_665 no
Si3 Ba2 Si3 85.3(2) 17_555 20_554 no
Si3 Ba2 Si3 41.5(2) 17_555 23_555 no
Si3 Ba2 Si3 122.8(2) 17_555 25_565 no
Si3 Ba2 Si3 97.6(2) 17_555 28_565 no
Si3 Ba2 Si1 74.37(11) 17_555 2_555 no
Si3 Ba2 Si1 96.43(11) 17_555 3_555 no
Si3 Ba2 Si1 158.17(11) 17_555 6_555 no
Si3 Ba2 Si1 39.57(11) 17_555 13_554 no
Si3 Ba2 Si2 98.34(15) 17_555 . no
Si3 Ba2 Si2 135.88(15) 17_555 4_555 no
Si3 Ba2 Si2 96.61(15) 17_555 31_565 no
Si3 Ba2 Si2 62.76(15) 17_555 34_565 no
Si3 Ba2 Si2 63.59(15) 17_555 37_666 no
Si3 Ba2 Si2 122.44(15) 17_555 40_665 no
Si3 Ba2 Si2 37.19(14) 17_555 43_666 no
Si3 Ba2 Si2 100.64(15) 17_555 46_665 no
Si3 Ba2 Si3 104.34(15) 17_555 3_555 no
Si3 Ba2 Si3 62.98(15) 17_555 33_565 no
Si3 Ba2 Si3 62.08(15) 17_555 37_666 no
Si3 Ba2 Si3 132.44(15) 17_555 40_665 no
Si3 Ba2 Si3 70.5(2) 20_554 23_555 no
Si3 Ba2 Si3 122.8(2) 20_554 25_565 no
Si3 Ba2 Si3 161.9(2) 20_554 28_565 no
Si3 Ba2 Si1 39.57(11) 20_554 2_555 no
Si3 Ba2 Si1 158.17(11) 20_554 3_555 no
Si3 Ba2 Si1 96.43(11) 20_554 6_555 no
Si3 Ba2 Si1 74.37(11) 20_554 13_554 no
Si3 Ba2 Si2 96.61(15) 20_554 . no
Si3 Ba2 Si2 62.76(15) 20_554 4_555 no
Si3 Ba2 Si2 98.34(15) 20_554 31_565 no
Si3 Ba2 Si2 135.88(15) 20_554 34_565 no
Si3 Ba2 Si2 100.64(15) 20_554 37_666 no
Si3 Ba2 Si2 37.19(14) 20_554 40_665 no
Si3 Ba2 Si2 122.44(15) 20_554 43_666 no
Si3 Ba2 Si2 63.59(15) 20_554 46_665 no
Si3 Ba2 Si3 62.98(15) 20_554 3_555 no
Si3 Ba2 Si3 104.34(15) 20_554 33_565 no
Si3 Ba2 Si3 132.44(15) 20_554 37_666 no
Si3 Ba2 Si3 62.08(15) 20_554 40_665 no
Si3 Ba2 Si3 161.9(2) 23_555 25_565 no
Si3 Ba2 Si3 122.8(2) 23_555 28_565 no
Si3 Ba2 Si1 39.57(11) 23_555 2_555 no
Si3 Ba2 Si1 96.43(11) 23_555 3_555 no
Si3 Ba2 Si1 158.17(11) 23_555 6_555 no
Si3 Ba2 Si1 74.37(11) 23_555 13_554 no
Si3 Ba2 Si2 62.76(15) 23_555 . no
Si3 Ba2 Si2 96.61(15) 23_555 4_555 no
Si3 Ba2 Si2 135.88(15) 23_555 31_565 no
Si3 Ba2 Si2 98.34(15) 23_555 34_565 no
Si3 Ba2 Si2 37.19(14) 23_555 37_666 no
Si3 Ba2 Si2 100.64(15) 23_555 40_665 no
Si3 Ba2 Si2 63.59(15) 23_555 43_666 no
Si3 Ba2 Si2 122.44(15) 23_555 46_665 no
Si3 Ba2 Si3 62.98(15) 23_555 3_555 no
Si3 Ba2 Si3 104.34(15) 23_555 33_565 no
Si3 Ba2 Si3 62.08(15) 23_555 37_666 no
Si3 Ba2 Si3 132.44(15) 23_555 40_665 no
Si3 Ba2 Si3 41.5(2) 25_565 28_565 no
Si3 Ba2 Si1 158.17(11) 25_565 2_555 no
Si3 Ba2 Si1 74.37(11) 25_565 3_555 no
Si3 Ba2 Si1 39.57(11) 25_565 6_555 no
Si3 Ba2 Si1 96.43(11) 25_565 13_554 no
Si3 Ba2 Si2 122.44(15) 25_565 . no
Si3 Ba2 Si2 100.64(15) 25_565 4_555 no
Si3 Ba2 Si2 37.19(14) 25_565 31_565 no
Si3 Ba2 Si2 63.59(15) 25_565 34_565 no
Si3 Ba2 Si2 135.88(15) 25_565 37_666 no
Si3 Ba2 Si2 96.61(15) 25_565 40_665 no
Si3 Ba2 Si2 98.34(15) 25_565 43_666 no
Si3 Ba2 Si2 62.76(15) 25_565 46_665 no
Si3 Ba2 Si3 132.44(15) 25_565 3_555 no
Si3 Ba2 Si3 62.08(15) 25_565 33_565 no
Si3 Ba2 Si3 104.34(15) 25_565 37_666 no
Si3 Ba2 Si3 62.98(15) 25_565 40_665 no
Si3 Ba2 Si1 158.17(11) 28_565 2_555 no
Si3 Ba2 Si1 39.57(11) 28_565 3_555 no
Si3 Ba2 Si1 74.37(11) 28_565 6_555 no
Si3 Ba2 Si1 96.43(11) 28_565 13_554 no
Si3 Ba2 Si2 100.64(15) 28_565 . no
Si3 Ba2 Si2 122.44(15) 28_565 4_555 no
Si3 Ba2 Si2 63.59(15) 28_565 31_565 no
Si3 Ba2 Si2 37.19(14) 28_565 34_565 no
Si3 Ba2 Si2 96.61(15) 28_565 37_666 no
Si3 Ba2 Si2 135.88(15) 28_565 40_665 no
Si3 Ba2 Si2 62.76(15) 28_565 43_666 no
Si3 Ba2 Si2 98.34(15) 28_565 46_665 no
Si3 Ba2 Si3 132.44(15) 28_565 3_555 no
Si3 Ba2 Si3 62.08(15) 28_565 33_565 no
Si3 Ba2 Si3 62.98(15) 28_565 37_666 no
Si3 Ba2 Si3 104.34(15) 28_565 40_665 no
Si1 Ba2 Si1 120.00(2) 2_555 3_555 no
Si1 Ba2 Si1 120.00(2) 2_555 6_555 no
Si1 Ba2 Si1 90.00(1) 2_555 13_554 no
Si1 Ba2 Si2 61.58(9) 2_555 . no
Si1 Ba2 Si2 61.58(9) 2_555 4_555 no
Si1 Ba2 Si2 136.56(9) 2_555 31_565 no
Si1 Ba2 Si2 136.56(9) 2_555 34_565 no
Si1 Ba2 Si2 61.58(9) 2_555 37_666 no
Si1 Ba2 Si2 61.58(9) 2_555 40_665 no
Si1 Ba2 Si2 103.05(9) 2_555 43_666 no
Si1 Ba2 Si2 103.05(9) 2_555 46_665 no
Si1 Ba2 Si3 36.93(10) 2_555 3_555 no
Si1 Ba2 Si3 126.93(10) 2_555 33_565 no
Si1 Ba2 Si3 95.70(10) 2_555 37_666 no
Si1 Ba2 Si3 95.70(10) 2_555 40_665 no
Si1 Ba2 Si1 90.00(1) 3_555 6_555 no
Si1 Ba2 Si1 120.00(2) 3_555 13_554 no
Si1 Ba2 Si2 61.58(9) 3_555 . no
Si1 Ba2 Si2 103.05(9) 3_555 4_555 no
Si1 Ba2 Si2 103.05(9) 3_555 31_565 no
Si1 Ba2 Si2 61.58(9) 3_555 34_565 no
Si1 Ba2 Si2 61.58(9) 3_555 37_666 no
Si1 Ba2 Si2 136.56(9) 3_555 40_665 no
Si1 Ba2 Si2 61.58(9) 3_555 43_666 no
Si1 Ba2 Si2 136.56(9) 3_555 46_665 no
Si1 Ba2 Si3 95.70(10) 3_555 3_555 no
Si1 Ba2 Si3 95.70(10) 3_555 33_565 no
Si1 Ba2 Si3 36.93(10) 3_555 37_666 no
Si1 Ba2 Si3 126.93(10) 3_555 40_665 no
Si1 Ba2 Si1 120.00(2) 6_555 13_554 no
Si1 Ba2 Si2 103.05(9) 6_555 . no
Si1 Ba2 Si2 61.58(9) 6_555 4_555 no
Si1 Ba2 Si2 61.58(9) 6_555 31_565 no
Si1 Ba2 Si2 103.05(9) 6_555 34_565 no
Si1 Ba2 Si2 136.56(9) 6_555 37_666 no
Si1 Ba2 Si2 61.58(9) 6_555 40_665 no
Si1 Ba2 Si2 136.56(9) 6_555 43_666 no
Si1 Ba2 Si2 61.58(9) 6_555 46_665 no
Si1 Ba2 Si3 95.70(10) 6_555 3_555 no
Si1 Ba2 Si3 95.70(10) 6_555 33_565 no
Si1 Ba2 Si3 126.93(10) 6_555 37_666 no
Si1 Ba2 Si3 36.93(10) 6_555 40_665 no
Si1 Ba2 Si2 136.56(9) 13_554 . no
Si1 Ba2 Si2 136.56(9) 13_554 4_555 no
Si1 Ba2 Si2 61.58(9) 13_554 31_565 no
Si1 Ba2 Si2 61.58(9) 13_554 34_565 no
Si1 Ba2 Si2 103.05(9) 13_554 37_666 no
Si1 Ba2 Si2 103.05(9) 13_554 40_665 no
Si1 Ba2 Si2 61.58(9) 13_554 43_666 no
Si1 Ba2 Si2 61.58(9) 13_554 46_665 no
Si1 Ba2 Si3 126.93(10) 13_554 3_555 no
Si1 Ba2 Si3 36.93(10) 13_554 33_565 no
Si1 Ba2 Si3 95.70(10) 13_554 37_666 no
Si1 Ba2 Si3 95.70(10) 13_554 40_665 no
Si2 Ba2 Si2 59.50(13) . 4_555 no
Si2 Ba2 Si2 159.62(13) . 31_565 no
Si2 Ba2 Si2 116.42(13) . 34_565 no
Si2 Ba2 Si2 35.68(13) . 37_666 no
Si2 Ba2 Si2 91.79(13) . 40_665 no
Si2 Ba2 Si2 91.79(13) . 43_666 no
Si2 Ba2 Si2 151.02(13) . 46_665 no
Si2 Ba2 Si3 35.24(14) . 3_555 no
Si2 Ba2 Si3 150.04(14) . 33_565 no
Si2 Ba2 Si3 58.93(14) . 37_666 no
Si2 Ba2 Si3 117.80(14) . 40_665 no
Si2 Ba2 Si2 116.42(13) 4_555 31_565 no
Si2 Ba2 Si2 159.62(13) 4_555 34_565 no
Si2 Ba2 Si2 91.79(13) 4_555 37_666 no
Si2 Ba2 Si2 35.68(13) 4_555 40_665 no
Si2 Ba2 Si2 151.02(13) 4_555 43_666 no
Si2 Ba2 Si2 91.79(13) 4_555 46_665 no
Si2 Ba2 Si3 35.24(14) 4_555 3_555 no
Si2 Ba2 Si3 150.04(14) 4_555 33_565 no
Si2 Ba2 Si3 117.80(14) 4_555 37_666 no
Si2 Ba2 Si3 58.93(14) 4_555 40_665 no
Si2 Ba2 Si2 59.50(13) 31_565 34_565 no
Si2 Ba2 Si2 151.02(13) 31_565 37_666 no
Si2 Ba2 Si2 91.79(13) 31_565 40_665 no
Si2 Ba2 Si2 91.79(13) 31_565 43_666 no
Si2 Ba2 Si2 35.68(13) 31_565 46_665 no
Si2 Ba2 Si3 150.04(14) 31_565 3_555 no
Si2 Ba2 Si3 35.24(14) 31_565 33_565 no
Si2 Ba2 Si3 117.80(14) 31_565 37_666 no
Si2 Ba2 Si3 58.93(14) 31_565 40_665 no
Si2 Ba2 Si2 91.79(13) 34_565 37_666 no
Si2 Ba2 Si2 151.02(13) 34_565 40_665 no
Si2 Ba2 Si2 35.68(13) 34_565 43_666 no
Si2 Ba2 Si2 91.79(13) 34_565 46_665 no
Si2 Ba2 Si3 150.04(14) 34_565 3_555 no
Si2 Ba2 Si3 35.24(14) 34_565 33_565 no
Si2 Ba2 Si3 58.93(14) 34_565 37_666 no
Si2 Ba2 Si3 117.80(14) 34_565 40_665 no
Si2 Ba2 Si2 116.42(13) 37_666 40_665 no
Si2 Ba2 Si2 59.50(13) 37_666 43_666 no
Si2 Ba2 Si2 159.62(13) 37_666 46_665 no
Si2 Ba2 Si3 58.93(14) 37_666 3_555 no
Si2 Ba2 Si3 117.80(14) 37_666 33_565 no
Si2 Ba2 Si3 35.24(14) 37_666 37_666 no
Si2 Ba2 Si3 150.04(14) 37_666 40_665 no
Si2 Ba2 Si2 159.62(13) 40_665 43_666 no
Si2 Ba2 Si2 59.50(13) 40_665 46_665 no
Si2 Ba2 Si3 58.93(14) 40_665 3_555 no
Si2 Ba2 Si3 117.80(14) 40_665 33_565 no
Si2 Ba2 Si3 150.04(14) 40_665 37_666 no
Si2 Ba2 Si3 35.24(14) 40_665 40_665 no
Si2 Ba2 Si2 116.42(13) 43_666 46_665 no
Si2 Ba2 Si3 117.80(14) 43_666 3_555 no
Si2 Ba2 Si3 58.93(14) 43_666 33_565 no
Si2 Ba2 Si3 35.24(14) 43_666 37_666 no
Si2 Ba2 Si3 150.04(14) 43_666 40_665 no
Si2 Ba2 Si3 117.80(14) 46_665 3_555 no
Si2 Ba2 Si3 58.93(14) 46_665 33_565 no
Si2 Ba2 Si3 150.04(14) 46_665 37_666 no
Si2 Ba2 Si3 35.24(14) 46_665 40_665 no
Si3 Ba2 Si3 163.85(14) 3_555 33_565 no
Si3 Ba2 Si3 91.13(14) 3_555 37_666 no
Si3 Ba2 Si3 91.13(14) 3_555 40_665 no
Si3 Ba2 Si3 91.13(14) 33_565 37_666 no
Si3 Ba2 Si3 91.13(14) 33_565 40_665 no
Si3 Ba2 Si3 163.85(14) 37_666 40_665 no
Si3 Si1 Si3 113.1(2) 2_555 5_556 no
Si3 Si1 Si3 107.7(2) 2_555 39_666 no
Si3 Si1 Si3 107.7(2) 2_555 45_656 no
Si3 Si1 Ba2 67.1(2) 2_555 2_555 no
Si3 Si1 Ba2 78.4(2) 2_555 3_555 no
Si3 Si1 Ba2 168.4(2) 2_555 6_556 no
Si3 Si1 Ba2 67.1(2) 2_555 13_445 no
Si3 Si1 Si3 107.7(2) 5_556 39_666 no
Si3 Si1 Si3 107.7(2) 5_556 45_656 no
Si3 Si1 Ba2 67.1(2) 5_556 2_555 no
Si3 Si1 Ba2 168.4(2) 5_556 3_555 no
Si3 Si1 Ba2 78.4(2) 5_556 6_556 no
Si3 Si1 Ba2 67.1(2) 5_556 13_445 no
Si3 Si1 Si3 113.1(2) 39_666 45_656 no
Si3 Si1 Ba2 78.4(2) 39_666 2_555 no
Si3 Si1 Ba2 67.1(2) 39_666 3_555 no
Si3 Si1 Ba2 67.1(2) 39_666 6_556 no
Si3 Si1 Ba2 168.4(2) 39_666 13_445 no
Si3 Si1 Ba2 168.4(2) 45_656 2_555 no
Si3 Si1 Ba2 67.1(2) 45_656 3_555 no
Si3 Si1 Ba2 67.1(2) 45_656 6_556 no
Si3 Si1 Ba2 78.4(2) 45_656 13_445 no
Ba2 Si1 Ba2 120.00(2) 2_555 3_555 no
Ba2 Si1 Ba2 120.00(2) 2_555 6_556 no
Ba2 Si1 Ba2 90.00(1) 2_555 13_445 no
Ba2 Si1 Ba2 90.00(1) 3_555 6_556 no
Ba2 Si1 Ba2 120.00(2) 3_555 13_445 no
Ba2 Si1 Ba2 120.00(2) 6_556 13_445 no
Si2 Si2 Si3 108.9(3) 37_666 . no
Si2 Si2 Si3 108.9(3) 37_666 2_555 no
Si2 Si2 Si3 108.9(3) 37_666 3_555 no
Si2 Si2 Ba1 180.0(3) 37_666 . no
Si2 Si2 Ba2 72.2(2) 37_666 . no
Si2 Si2 Ba2 72.2(2) 37_666 2_555 no
Si2 Si2 Ba2 72.2(2) 37_666 3_555 no
Si3 Si2 Si3 110.0(3) . 2_555 no
Si3 Si2 Si3 110.0(3) . 3_555 no
Si3 Si2 Ba1 71.1(2) . . no
Si3 Si2 Ba2 63.9(2) . . no
Si3 Si2 Ba2 75.2(2) . 2_555 no
Si3 Si2 Ba2 173.4(3) . 3_555 no
Si3 Si2 Si3 110.0(3) 2_555 3_555 no
Si3 Si2 Ba1 71.1(2) 2_555 . no
Si3 Si2 Ba2 173.4(3) 2_555 . no
Si3 Si2 Ba2 63.9(2) 2_555 2_555 no
Si3 Si2 Ba2 75.2(2) 2_555 3_555 no
Si3 Si2 Ba1 71.1(2) 3_555 . no
Si3 Si2 Ba2 75.2(2) 3_555 . no
Si3 Si2 Ba2 173.4(3) 3_555 2_555 no
Si3 Si2 Ba2 63.9(2) 3_555 3_555 no
Ba1 Si2 Ba2 107.8(2) . . no
Ba1 Si2 Ba2 107.8(2) . 2_555 no
Ba1 Si2 Ba2 107.8(2) . 3_555 no
Ba2 Si2 Ba2 111.05(15) . 2_555 no
Ba2 Si2 Ba2 111.05(15) . 3_555 no
Ba2 Si2 Ba2 111.05(15) 2_555 3_555 no
Si2 Si3 Si2 107.4(3) . 7_555 no
Si2 Si3 Si1 106.4(3) . 3_555 no
Si2 Si3 Si3 106.2(3) . 4_555 no
Si2 Si3 Ba1 67.5(2) . . no
Si2 Si3 Ba2 78.9(2) . . no
Si2 Si3 Ba2 173.3(3) . 7_555 no
Si2 Si3 Ba2 69.5(2) . 2_555 no
Si2 Si3 Si1 106.4(3) 7_555 3_555 no
Si2 Si3 Si3 106.2(3) 7_555 4_555 no
Si2 Si3 Ba1 67.5(2) 7_555 . no
Si2 Si3 Ba2 173.3(3) 7_555 . no
Si2 Si3 Ba2 78.9(2) 7_555 7_555 no
Si2 Si3 Ba2 69.5(2) 7_555 2_555 no
Si1 Si3 Si3 123.4(3) 3_555 4_555 no
Si1 Si3 Ba1 168.2(3) 3_555 . no
Si1 Si3 Ba2 73.4(2) 3_555 . no
Si1 Si3 Ba2 73.4(2) 3_555 7_555 no
Si1 Si3 Ba2 64.64(15) 3_555 2_555 no
Si3 Si3 Ba1 68.4(2) 4_555 . no
Si3 Si3 Ba2 69.2(2) 4_555 . no
Si3 Si3 Ba2 69.2(2) 4_555 7_555 no
Si3 Si3 Ba2 171.9(3) 4_555 2_555 no
Ba1 Si3 Ba2 113.9(2) . . no
Ba1 Si3 Ba2 113.9(2) . 7_555 no
Ba1 Si3 Ba2 103.6(2) . 2_555 no
Ba2 Si3 Ba2 94.7(2) . 7_555 no
Ba2 Si3 Ba2 115.6(2) . 2_555 no
Ba2 Si3 Ba2 115.6(2) 7_555 2_555 no
loop_
_geom_bond_atom_site_label_1
_geom_bond_atom_site_label_2
_geom_bond_distance
_geom_bond_site_symmetry_2
_geom_bond_publ_flag
Ba1 Si2 3.282(6) . yes
Ba1 Si2 3.282(6) 4_555 yes
Ba1 Si2 3.282(6) 7_555 yes
Ba1 Si2 3.282(6) 10_555 yes
Ba1 Si2 3.282(6) 25_555 yes
Ba1 Si2 3.282(6) 28_555 yes
Ba1 Si2 3.282(6) 31_555 yes
Ba1 Si2 3.282(6) 34_555 yes
Ba1 Si3 3.361(8) . yes
Ba1 Si3 3.361(8) 2_555 yes
Ba1 Si3 3.361(8) 3_555 yes
Ba1 Si3 3.361(8) 4_555 yes
Ba1 Si3 3.361(8) 5_555 yes
Ba1 Si3 3.361(8) 8_555 yes
Ba1 Si3 3.361(8) 9_555 yes
Ba1 Si3 3.361(8) 11_555 yes
Ba1 Si3 3.361(8) 25_555 yes
Ba1 Si3 3.361(8) 27_555 yes
Ba1 Si3 3.361(8) 28_555 yes
Ba1 Si3 3.361(8) 33_555 yes
Ba2 Si3 3.494(6) . yes
Ba2 Si3 3.494(6) 4_555 yes
Ba2 Si3 3.494(6) 14_554 yes
Ba2 Si3 3.494(6) 17_555 yes
Ba2 Si3 3.494(6) 20_554 yes
Ba2 Si3 3.494(6) 23_555 yes
Ba2 Si3 3.494(6) 25_565 yes
Ba2 Si3 3.494(6) 28_565 yes
Ba2 Si1 3.6351(1) 2_555 yes
Ba2 Si1 3.6351(1) 3_555 yes
Ba2 Si1 3.6351(1) 6_555 yes
Ba2 Si1 3.6351(1) 13_554 yes
Ba2 Si2 3.819(6) . yes
Ba2 Si2 3.819(6) 4_555 yes
Ba2 Si2 3.819(6) 31_565 yes
Ba2 Si2 3.819(6) 34_565 yes
Ba2 Si2 3.819(6) 37_666 yes
Ba2 Si2 3.819(6) 40_665 yes
Ba2 Si2 3.819(6) 43_666 yes
Ba2 Si2 3.819(6) 46_665 yes
Ba2 Si3 3.941(9) 3_555 yes
Ba2 Si3 3.941(9) 33_565 yes
Ba2 Si3 3.941(9) 37_666 yes
Ba2 Si3 3.941(9) 40_665 yes
Si1 Si3 2.417(8) 2_555 yes
Si1 Si3 2.417(8) 5_556 yes
Si1 Si3 2.417(8) 39_666 yes
Si1 Si3 2.417(8) 45_656 yes
Si2 Si2 2.340(9) 37_666 yes
Si2 Si3 2.352(8) . yes
Si2 Si3 2.352(8) 2_555 yes
Si2 Si3 2.352(8) 3_555 yes
Si3 Si3 2.478(12) 4_555 yes
