#------------------------------------------------------------------------------
#$Date: 2015-10-09 11:32:15 +0300 (Fri, 09 Oct 2015) $
#$Revision: 161307 $
#$URL: svn://www.crystallography.net/cod/cif/1/53/45/1534511.cif $
#------------------------------------------------------------------------------
#
# This file is available in the Crystallography Open Database (COD),
# http://www.crystallography.net/
#
# All data on this site have been placed in the public domain by the
# contributors.
#
data_1534511
loop_
_publ_author_name
'Salloum, D.'
'Gautier, R.'
'Gougeon, P.'
'Potel, M.'
_publ_section_title
;
 Syntheses and structural trends of the In(x) Mo15 S19 (0 <= x <= 3.7)
 compounds containing Mo6 and Mo9 clusters
;
_journal_name_full               'Journal of Solid State Chemistry'
_journal_page_first              1672
_journal_page_last               1680
_journal_volume                  177
_journal_year                    2004
_chemical_formula_sum            'Mo15 S19'
_chemical_name_systematic        'Mo15 S19'
_space_group_IT_number           176
_symmetry_space_group_name_Hall  '-P 6c'
_symmetry_space_group_name_H-M   'P 63/m'
_cell_angle_alpha                90
_cell_angle_beta                 90
_cell_angle_gamma                120
_cell_formula_units_Z            2
_cell_length_a                   9.1838
_cell_length_b                   9.1838
_cell_length_c                   19.0483
_cell_volume                     1391.335
_citation_journal_id_ASTM        JSSCBI
_cod_data_source_file            Salloum_JSSCBI_2004_1201.cif
_cod_data_source_block           Mo15S19
_cod_database_code               1534511
loop_
_symmetry_equiv_pos_as_xyz
x,y,z
x-y,x,z+1/2
-y,x-y,z
-x,-y,z+1/2
-x+y,-x,z
y,-x+y,z+1/2
-x,-y,-z
-x+y,-x,-z-1/2
y,-x+y,-z
x,y,-z-1/2
x-y,x,-z
-y,x-y,-z-1/2
loop_
_atom_site_label
_atom_site_type_symbol
_atom_site_fract_x
_atom_site_fract_y
_atom_site_fract_z
_atom_site_occupancy
_atom_site_U_iso_or_equiv
Mo1 Mo 0.17723 0.01764 0.062735 1 0.0
S2 S 0.01148 0.63152 -0.14323 1 0.0
S3 S 0.30507 -0.03911 -0.25 1 0.0
S1 S 0.31991 0.0324 -0.04726 1 0.0
Mo2 Mo 0.31592 -0.17249 -0.129801 1 0.0
S4 S 0 0 -0.15994 1 0.0
S5 S 0.6667 0.3333 0.03305 1 0.0
Mo3 Mo 0.15778 -0.34706 -0.25 1 0.0
