#------------------------------------------------------------------------------
#$Date: 2016-02-16 22:30:59 +0200 (Tue, 16 Feb 2016) $
#$Revision: 176467 $
#$URL: svn://www.crystallography.net/cod/cif/4/31/13/4311321.cif $
#------------------------------------------------------------------------------
#
# This file is available in the Crystallography Open Database (COD),
# http://www.crystallography.net/
#
# All data on this site have been placed in the public domain by the
# contributors.
#
data_4311321
loop_
_publ_author_name
'Shahrad Amerioun'
'Tadahiro Yokosawa'
'Sven Lidin'
'Ulrich H\"aussermann'
_publ_section_title
;
 Phase Stability in the Systems AeAl2-xMgx (Ae = Ca, Sr, Ba): Electron
 Concentration and Size Controlled Variations on the Laves Phase
 Structural Theme
;
_journal_name_full               'Inorganic Chemistry'
_journal_page_first              4751
_journal_page_last               4760
_journal_paper_doi               10.1021/ic0400235
_journal_volume                  43
_journal_year                    2004
_chemical_formula_sum            'Ba Mg2'
_chemical_formula_weight         185.93
_chemical_name_systematic
;
  ?
;
_space_group_IT_number           194
_symmetry_cell_setting           hexagonal
_symmetry_space_group_name_Hall  '-P 6c 2c'
_symmetry_space_group_name_H-M   'P 63/m m c'
_atom_sites_solution_hydrogens   geom
_atom_sites_solution_primary     direct
_atom_sites_solution_secondary   difmap
_audit_creation_method           SHELXL-97
_cell_angle_alpha                90.00
_cell_angle_beta                 90.00
_cell_angle_gamma                120.00
_cell_formula_units_Z            4
_cell_length_a                   6.6699(9)
_cell_length_b                   6.6699(9)
_cell_length_c                   10.602(2)
_cell_measurement_reflns_used    28
_cell_measurement_temperature    293(2)
_cell_measurement_theta_max      43.35
_cell_measurement_theta_min      7.65
_cell_volume                     408.47(11)
_computing_cell_refinement       'PIRUM (Werner & Ericsson, 1993)'
_computing_data_collection       'EXPOSE in IPDS (Stoe &Cie, 1997)'
_computing_data_reduction        'X-RED  (Stoe & Cie, 1997)'
_computing_molecular_graphics    'Atoms (Dowty, 1997)'
_computing_structure_refinement  'SHELXL-97 (Sheldrick, 1997)'
_computing_structure_solution    'SHELXS-97 (Sheldrick, 1990)'
_diffrn_ambient_temperature      293(2)
_diffrn_detector_area_resol_mean 'area detector'
_diffrn_measured_fraction_theta_full 1.000
_diffrn_measured_fraction_theta_max 1.000
_diffrn_measurement_device_type  'Stoe IPDS (version 2.87)'
_diffrn_measurement_method       'fi scan'
_diffrn_radiation_monochromator  graphite
_diffrn_radiation_source         'fine-focus sealed tube'
_diffrn_radiation_type           MoK\a
_diffrn_radiation_wavelength     0.71073
_diffrn_reflns_av_R_equivalents  0.0405
_diffrn_reflns_av_sigmaI/netI    0.0195
_diffrn_reflns_limit_h_max       8
_diffrn_reflns_limit_h_min       -6
_diffrn_reflns_limit_k_max       7
_diffrn_reflns_limit_k_min       -8
_diffrn_reflns_limit_l_max       12
_diffrn_reflns_limit_l_min       -12
_diffrn_reflns_number            2000
_diffrn_reflns_theta_full        25.98
_diffrn_reflns_theta_max         25.98
_diffrn_reflns_theta_min         3.53
_diffrn_standards_interval_count 6.0
_exptl_absorpt_coefficient_mu    9.81
_exptl_absorpt_correction_T_max  0.3339
_exptl_absorpt_correction_T_min  0.1940
_exptl_crystal_colour            silver
_exptl_crystal_density_diffrn    3.024
_exptl_crystal_density_method    'not measured'
_exptl_crystal_description       'needle-like shape'
_exptl_crystal_F_000             320
_exptl_crystal_size_max          0.10
_exptl_crystal_size_mid          0.06
_exptl_crystal_size_min          0.04
_refine_diff_density_max         0.984
_refine_diff_density_min         -1.276
_refine_diff_density_rms         0.213
_refine_ls_extinction_method     none
_refine_ls_goodness_of_fit_ref   1.083
_refine_ls_hydrogen_treatment    mixed
_refine_ls_matrix_type           full
_refine_ls_number_parameters     10
_refine_ls_number_reflns         184
_refine_ls_number_restraints     0
_refine_ls_restrained_S_all      1.083
_refine_ls_R_factor_all          0.0343
_refine_ls_R_factor_gt           0.0267
_refine_ls_shift/su_max          0.000
_refine_ls_shift/su_mean         0.000
_refine_ls_structure_factor_coef Fsqd
_refine_ls_weighting_details
'calc w=1/[\s^2^(Fo^2^)+(0.0324P)^2^+1.9694P] where P=(Fo^2^+2Fc^2^)/3'
_refine_ls_weighting_scheme      calc
_refine_ls_wR_factor_gt          0.0575
_refine_ls_wR_factor_ref         0.0603
_reflns_number_gt                152
_reflns_number_total             184
_reflns_threshold_expression     >2sigma(I)
_cod_data_source_file            ic0400235_4.cif
_cod_data_source_block           BaMg2
_cod_original_cell_volume        408.46(12)
_cod_original_formula_sum        BaMg2
_cod_database_code               4311321
loop_
_symmetry_equiv_pos_as_xyz
'x, y, z'
'-y, x-y, z'
'-x+y, -x, z'
'-x, -y, z+1/2'
'y, -x+y, z+1/2'
'x-y, x, z+1/2'
'y, x, -z'
'x-y, -y, -z'
'-x, -x+y, -z'
'-y, -x, -z+1/2'
'-x+y, y, -z+1/2'
'x, x-y, -z+1/2'
'-x, -y, -z'
'y, -x+y, -z'
'x-y, x, -z'
'x, y, -z-1/2'
'-y, x-y, -z-1/2'
'-x+y, -x, -z-1/2'
'-y, -x, z'
'-x+y, y, z'
'x, x-y, z'
'y, x, z-1/2'
'x-y, -y, z-1/2'
'-x, -x+y, z-1/2'
loop_
_atom_site_label
_atom_site_type_symbol
_atom_site_fract_x
_atom_site_fract_y
_atom_site_fract_z
_atom_site_U_iso_or_equiv
_atom_site_adp_type
_atom_site_occupancy
_atom_site_symetry_multiplicity
_atom_site_calc_flag
_atom_site_refinement_flags
_atom_site_disorder_assembly
_atom_site_disorder_group
Ba1 Ba 0.3333 0.6667 0.05720(7) 0.0221(3) Uani 1 6 d S . .
Mg1 Mg 0.0000 0.0000 0.0000 0.0209(12) Uani 1 12 d S . .
Mg2 Mg 0.8376(3) 0.6752(7) 0.2500 0.0225(7) Uani 1 4 d S . .
loop_
_atom_site_aniso_label
_atom_site_aniso_U_11
_atom_site_aniso_U_22
_atom_site_aniso_U_33
_atom_site_aniso_U_23
_atom_site_aniso_U_13
_atom_site_aniso_U_12
Ba1 0.0214(3) 0.0214(3) 0.0234(4) 0.000 0.000 0.01069(17)
Mg1 0.0201(18) 0.0201(18) 0.022(3) 0.000 0.000 0.0101(9)
Mg2 0.0230(13) 0.0212(18) 0.0227(15) 0.000 0.000 0.0106(9)
loop_
_atom_type_symbol
_atom_type_description
_atom_type_scat_dispersion_real
_atom_type_scat_dispersion_imag
_atom_type_scat_source
Ba Ba -0.3244 2.2819 'International Tables Vol C Tables 4.2.6.8 and 6.1.1.4'
Mg Mg 0.0486 0.0363 'International Tables Vol C Tables 4.2.6.8 and 6.1.1.4'
loop_
_geom_angle_atom_site_label_1
_geom_angle_atom_site_label_2
_geom_angle_atom_site_label_3
_geom_angle
_geom_angle_site_symmetry_1
_geom_angle_site_symmetry_3
_geom_angle_publ_flag
Mg2 Ba1 Mg2 53.36(9) 15 13_665 ?
Mg2 Ba1 Mg2 53.36(9) 15 14_565 ?
Mg2 Ba1 Mg2 53.36(9) 13_665 14_565 ?
Mg2 Ba1 Mg1 49.82(5) 15 1_565 ?
Mg2 Ba1 Mg1 97.07(3) 13_665 1_565 ?
Mg2 Ba1 Mg1 97.07(3) 14_565 1_565 ?
Mg2 Ba1 Mg1 97.07(3) 15 . ?
Mg2 Ba1 Mg1 49.82(5) 13_665 . ?
Mg2 Ba1 Mg1 97.07(3) 14_565 . ?
Mg1 Ba1 Mg1 117.626(6) 1_565 . ?
Mg2 Ba1 Mg1 97.07(3) 15 1_665 ?
Mg2 Ba1 Mg1 97.07(3) 13_665 1_665 ?
Mg2 Ba1 Mg1 49.82(5) 14_565 1_665 ?
Mg1 Ba1 Mg1 117.626(6) 1_565 1_665 ?
Mg1 Ba1 Mg1 117.626(6) . 1_665 ?
Mg2 Ba1 Mg2 116.96(2) 15 3_675 ?
Mg2 Ba1 Mg2 145.724(12) 13_665 3_675 ?
Mg2 Ba1 Mg2 93.48(6) 14_565 3_675 ?
Mg1 Ba1 Mg2 95.38(6) 1_565 3_675 ?
Mg1 Ba1 Mg2 143.55(5) . 3_675 ?
Mg1 Ba1 Mg2 49.14(4) 1_665 3_675 ?
Mg2 Ba1 Mg2 93.48(6) 15 2_665 ?
Mg2 Ba1 Mg2 145.724(12) 13_665 2_665 ?
Mg2 Ba1 Mg2 116.96(2) 14_565 2_665 ?
Mg1 Ba1 Mg2 49.14(4) 1_565 2_665 ?
Mg1 Ba1 Mg2 143.55(5) . 2_665 ?
Mg1 Ba1 Mg2 95.38(6) 1_665 2_665 ?
Mg2 Ba1 Mg2 51.85(11) 3_675 2_665 ?
Mg2 Ba1 Mg2 93.48(6) 15 1_455 ?
Mg2 Ba1 Mg2 116.96(2) 13_665 1_455 ?
Mg2 Ba1 Mg2 145.724(13) 14_565 1_455 ?
Mg1 Ba1 Mg2 49.14(4) 1_565 1_455 ?
Mg1 Ba1 Mg2 95.38(6) . 1_455 ?
Mg1 Ba1 Mg2 143.55(5) 1_665 1_455 ?
Mg2 Ba1 Mg2 95.190(15) 3_675 1_455 ?
Mg2 Ba1 Mg2 49.08(11) 2_665 1_455 ?
Mg2 Ba1 Mg2 116.96(2) 15 3_565 ?
Mg2 Ba1 Mg2 93.48(6) 13_665 3_565 ?
Mg2 Ba1 Mg2 145.724(12) 14_565 3_565 ?
Mg1 Ba1 Mg2 95.38(6) 1_565 3_565 ?
Mg1 Ba1 Mg2 49.14(4) . 3_565 ?
Mg1 Ba1 Mg2 143.55(5) 1_665 3_565 ?
Mg2 Ba1 Mg2 116.98(2) 3_675 3_565 ?
Mg2 Ba1 Mg2 95.190(15) 2_665 3_565 ?
Mg2 Ba1 Mg2 51.85(11) 1_455 3_565 ?
Mg2 Ba1 Mg2 145.724(12) 15 . ?
Mg2 Ba1 Mg2 116.96(2) 13_665 . ?
Mg2 Ba1 Mg2 93.48(6) 14_565 . ?
Mg1 Ba1 Mg2 143.55(5) 1_565 . ?
Mg1 Ba1 Mg2 95.38(6) . . ?
Mg1 Ba1 Mg2 49.14(4) 1_665 . ?
Mg2 Ba1 Mg2 49.08(11) 3_675 . ?
Mg2 Ba1 Mg2 95.190(15) 2_665 . ?
Mg2 Ba1 Mg2 116.98(2) 1_455 . ?
Mg2 Ba1 Mg2 95.190(15) 3_565 . ?
Mg2 Ba1 Mg2 145.724(12) 15 2_655 ?
Mg2 Ba1 Mg2 93.48(6) 13_665 2_655 ?
Mg2 Ba1 Mg2 116.96(2) 14_565 2_655 ?
Mg1 Ba1 Mg2 143.55(5) 1_565 2_655 ?
Mg1 Ba1 Mg2 49.14(4) . 2_655 ?
Mg1 Ba1 Mg2 95.38(6) 1_665 2_655 ?
Mg2 Ba1 Mg2 95.190(15) 3_675 2_655 ?
Mg2 Ba1 Mg2 116.98(2) 2_665 2_655 ?
Mg2 Ba1 Mg2 95.190(15) 1_455 2_655 ?
Mg2 Ba1 Mg2 49.08(11) 3_565 2_655 ?
Mg2 Ba1 Mg2 51.85(11) . 2_655 ?
Mg2 Mg1 Mg2 180.00(8) 14_455 2_655 ?
Mg2 Mg1 Mg2 60.04(10) 14_455 15_545 ?
Mg2 Mg1 Mg2 119.96(10) 2_655 15_545 ?
Mg2 Mg1 Mg2 119.96(10) 14_455 3_565 ?
Mg2 Mg1 Mg2 60.04(10) 2_655 3_565 ?
Mg2 Mg1 Mg2 180.00(7) 15_545 3_565 ?
Mg2 Mg1 Mg2 60.04(10) 14_455 13_665 ?
Mg2 Mg1 Mg2 119.96(10) 2_655 13_665 ?
Mg2 Mg1 Mg2 60.04(10) 15_545 13_665 ?
Mg2 Mg1 Mg2 119.96(10) 3_565 13_665 ?
Mg2 Mg1 Mg2 119.96(10) 14_455 1_445 ?
Mg2 Mg1 Mg2 60.04(10) 2_655 1_445 ?
Mg2 Mg1 Mg2 119.96(10) 15_545 1_445 ?
Mg2 Mg1 Mg2 60.04(10) 3_565 1_445 ?
Mg2 Mg1 Mg2 180.00(14) 13_665 1_445 ?
Mg2 Mg1 Ba1 114.35(2) 14_455 1_545 ?
Mg2 Mg1 Ba1 65.65(2) 2_655 1_545 ?
Mg2 Mg1 Ba1 63.66(6) 15_545 1_545 ?
Mg2 Mg1 Ba1 116.34(6) 3_565 1_545 ?
Mg2 Mg1 Ba1 114.35(2) 13_665 1_545 ?
Mg2 Mg1 Ba1 65.65(2) 1_445 1_545 ?
Mg2 Mg1 Ba1 65.65(2) 14_455 13_565 ?
Mg2 Mg1 Ba1 114.35(2) 2_655 13_565 ?
Mg2 Mg1 Ba1 116.34(6) 15_545 13_565 ?
Mg2 Mg1 Ba1 63.66(6) 3_565 13_565 ?
Mg2 Mg1 Ba1 65.65(2) 13_665 13_565 ?
Mg2 Mg1 Ba1 114.35(2) 1_445 13_565 ?
Ba1 Mg1 Ba1 180.0 1_545 13_565 ?
Mg2 Mg1 Ba1 114.35(2) 14_455 . ?
Mg2 Mg1 Ba1 65.65(2) 2_655 . ?
Mg2 Mg1 Ba1 114.35(2) 15_545 . ?
Mg2 Mg1 Ba1 65.65(2) 3_565 . ?
Mg2 Mg1 Ba1 63.66(6) 13_665 . ?
Mg2 Mg1 Ba1 116.34(6) 1_445 . ?
Ba1 Mg1 Ba1 117.626(6) 1_545 . ?
Ba1 Mg1 Ba1 62.374(6) 13_565 . ?
Mg2 Mg1 Ba1 65.65(2) 14_455 13 ?
Mg2 Mg1 Ba1 114.35(2) 2_655 13 ?
Mg2 Mg1 Ba1 65.65(2) 15_545 13 ?
Mg2 Mg1 Ba1 114.35(2) 3_565 13 ?
Mg2 Mg1 Ba1 116.34(6) 13_665 13 ?
Mg2 Mg1 Ba1 63.66(6) 1_445 13 ?
Ba1 Mg1 Ba1 62.374(6) 1_545 13 ?
Ba1 Mg1 Ba1 117.626(6) 13_565 13 ?
Ba1 Mg1 Ba1 180.0 . 13 ?
Mg2 Mg1 Ba1 63.66(6) 14_455 1_445 ?
Mg2 Mg1 Ba1 116.34(6) 2_655 1_445 ?
Mg2 Mg1 Ba1 114.35(2) 15_545 1_445 ?
Mg2 Mg1 Ba1 65.65(2) 3_565 1_445 ?
Mg2 Mg1 Ba1 114.35(2) 13_665 1_445 ?
Mg2 Mg1 Ba1 65.65(2) 1_445 1_445 ?
Ba1 Mg1 Ba1 117.626(6) 1_545 1_445 ?
Ba1 Mg1 Ba1 62.374(6) 13_565 1_445 ?
Ba1 Mg1 Ba1 117.626(6) . 1_445 ?
Ba1 Mg1 Ba1 62.374(6) 13 1_445 ?
Mg2 Mg1 Ba1 116.34(6) 14_455 13_665 ?
Mg2 Mg1 Ba1 63.66(6) 2_655 13_665 ?
Mg2 Mg1 Ba1 65.65(2) 15_545 13_665 ?
Mg2 Mg1 Ba1 114.35(2) 3_565 13_665 ?
Mg2 Mg1 Ba1 65.65(2) 13_665 13_665 ?
Mg2 Mg1 Ba1 114.35(2) 1_445 13_665 ?
Ba1 Mg1 Ba1 62.374(6) 1_545 13_665 ?
Ba1 Mg1 Ba1 117.626(6) 13_565 13_665 ?
Ba1 Mg1 Ba1 62.374(6) . 13_665 ?
Ba1 Mg1 Ba1 117.626(6) 13 13_665 ?
Ba1 Mg1 Ba1 180.0 1_445 13_665 ?
Mg1 Mg2 Mg1 109.42(12) 4_665 1_665 ?
Mg1 Mg2 Mg2 59.98(5) 4_665 2_765 ?
Mg1 Mg2 Mg2 59.98(5) 1_665 2_765 ?
Mg1 Mg2 Mg2 59.98(5) 4_665 3_675 ?
Mg1 Mg2 Mg2 59.98(5) 1_665 3_675 ?
Mg2 Mg2 Mg2 60.0 2_765 3_675 ?
Mg1 Mg2 Mg2 120.02(5) 4_665 2_655 ?
Mg1 Mg2 Mg2 120.02(5) 1_665 2_655 ?
Mg2 Mg2 Mg2 180.00(14) 2_765 2_655 ?
Mg2 Mg2 Mg2 120.0 3_675 2_655 ?
Mg1 Mg2 Mg2 120.02(5) 4_665 3_665 ?
Mg1 Mg2 Mg2 120.02(5) 1_665 3_665 ?
Mg2 Mg2 Mg2 120.0 2_765 3_665 ?
Mg2 Mg2 Mg2 180.00(14) 3_675 3_665 ?
Mg2 Mg2 Mg2 60.0 2_655 3_665 ?
Mg1 Mg2 Ba1 175.94(11) 4_665 13_665 ?
Mg1 Mg2 Ba1 66.521(16) 1_665 13_665 ?
Mg2 Mg2 Ba1 116.68(4) 2_765 13_665 ?
Mg2 Mg2 Ba1 116.68(4) 3_675 13_665 ?
Mg2 Mg2 Ba1 63.32(4) 2_655 13_665 ?
Mg2 Mg2 Ba1 63.32(4) 3_665 13_665 ?
Mg1 Mg2 Ba1 66.521(16) 4_665 4_665 ?
Mg1 Mg2 Ba1 175.94(11) 1_665 4_665 ?
Mg2 Mg2 Ba1 116.68(4) 2_765 4_665 ?
Mg2 Mg2 Ba1 116.68(4) 3_675 4_665 ?
Mg2 Mg2 Ba1 63.32(4) 2_655 4_665 ?
Mg2 Mg2 Ba1 63.32(4) 3_665 4_665 ?
Ba1 Mg2 Ba1 117.54(11) 13_665 4_665 ?
Mg1 Mg2 Ba1 65.22(2) 4_665 16_656 ?
Mg1 Mg2 Ba1 115.71(6) 1_665 16_656 ?
Mg2 Mg2 Ba1 65.46(6) 2_765 16_656 ?
Mg2 Mg2 Ba1 115.93(6) 3_675 16_656 ?
Mg2 Mg2 Ba1 114.54(6) 2_655 16_656 ?
Mg2 Mg2 Ba1 64.07(6) 3_665 16_656 ?
Ba1 Mg2 Ba1 116.12(5) 13_665 16_656 ?
Ba1 Mg2 Ba1 63.04(2) 4_665 16_656 ?
Mg1 Mg2 Ba1 115.71(6) 4_665 1_655 ?
Mg1 Mg2 Ba1 65.22(2) 1_665 1_655 ?
Mg2 Mg2 Ba1 65.46(6) 2_765 1_655 ?
Mg2 Mg2 Ba1 115.93(6) 3_675 1_655 ?
Mg2 Mg2 Ba1 114.54(6) 2_655 1_655 ?
Mg2 Mg2 Ba1 64.07(6) 3_665 1_655 ?
Ba1 Mg2 Ba1 63.04(2) 13_665 1_655 ?
Ba1 Mg2 Ba1 116.12(5) 4_665 1_655 ?
Ba1 Mg2 Ba1 63.00(2) 16_656 1_655 ?
Mg1 Mg2 Ba1 115.71(6) 4_665 . ?
Mg1 Mg2 Ba1 65.22(2) 1_665 . ?
Mg2 Mg2 Ba1 115.93(6) 2_765 . ?
Mg2 Mg2 Ba1 65.46(6) 3_675 . ?
Mg2 Mg2 Ba1 64.07(6) 2_655 . ?
Mg2 Mg2 Ba1 114.54(6) 3_665 . ?
Ba1 Mg2 Ba1 63.04(2) 13_665 . ?
Ba1 Mg2 Ba1 116.12(5) 4_665 . ?
Ba1 Mg2 Ba1 178.55(12) 16_656 . ?
Ba1 Mg2 Ba1 116.98(2) 1_655 . ?
Mg1 Mg2 Ba1 65.22(2) 4_665 16_556 ?
Mg1 Mg2 Ba1 115.71(6) 1_665 16_556 ?
Mg2 Mg2 Ba1 115.93(6) 2_765 16_556 ?
Mg2 Mg2 Ba1 65.46(6) 3_675 16_556 ?
Mg2 Mg2 Ba1 64.07(6) 2_655 16_556 ?
Mg2 Mg2 Ba1 114.54(6) 3_665 16_556 ?
Ba1 Mg2 Ba1 116.12(5) 13_665 16_556 ?
Ba1 Mg2 Ba1 63.04(2) 4_665 16_556 ?
Ba1 Mg2 Ba1 116.98(2) 16_656 16_556 ?
Ba1 Mg2 Ba1 178.55(12) 1_655 16_556 ?
Ba1 Mg2 Ba1 63.00(2) . 16_556 ?
loop_
_geom_bond_atom_site_label_1
_geom_bond_atom_site_label_2
_geom_bond_distance
_geom_bond_site_symmetry_2
_geom_bond_publ_flag
Ba1 Mg2 3.809(2) 15 ?
Ba1 Mg2 3.809(2) 13_665 ?
Ba1 Mg2 3.809(2) 14_565 ?
Ba1 Mg1 3.8983(5) 1_565 ?
Ba1 Mg1 3.8983(5) . ?
Ba1 Mg1 3.8983(5) 1_665 ?
Ba1 Mg2 3.9118(6) 3_675 ?
Ba1 Mg2 3.9118(6) 2_665 ?
Ba1 Mg2 3.9118(6) 1_455 ?
Ba1 Mg2 3.9118(6) 3_565 ?
Ba1 Mg2 3.9118(6) . ?
Ba1 Mg2 3.9118(6) 2_655 ?
Mg1 Mg2 3.247(2) 14_455 ?
Mg1 Mg2 3.247(2) 2_655 ?
Mg1 Mg2 3.247(2) 15_545 ?
Mg1 Mg2 3.247(2) 3_565 ?
Mg1 Mg2 3.247(2) 13_665 ?
Mg1 Mg2 3.247(2) 1_445 ?
Mg1 Ba1 3.8983(5) 1_545 ?
Mg1 Ba1 3.8983(5) 13_565 ?
Mg1 Ba1 3.8983(5) 13 ?
Mg1 Ba1 3.8983(5) 1_445 ?
Mg1 Ba1 3.8983(5) 13_665 ?
Mg2 Mg1 3.247(2) 4_665 ?
Mg2 Mg1 3.247(2) 1_665 ?
Mg2 Mg2 3.249(7) 2_765 ?
Mg2 Mg2 3.249(7) 3_675 ?
Mg2 Mg2 3.421(7) 2_655 ?
Mg2 Mg2 3.421(7) 3_665 ?
Mg2 Ba1 3.809(2) 13_665 ?
Mg2 Ba1 3.809(2) 4_665 ?
Mg2 Ba1 3.9118(6) 16_656 ?
Mg2 Ba1 3.9118(6) 1_655 ?
Mg2 Ba1 3.9118(6) 16_556 ?
