#------------------------------------------------------------------------------
#$Date: 2016-02-13 21:28:24 +0200 (Sat, 13 Feb 2016) $
#$Revision: 176429 $
#$URL: svn://www.crystallography.net/cod/cif/4/34/42/4344201.cif $
#------------------------------------------------------------------------------
#
# This file is available in the Crystallography Open Database (COD),
# http://www.crystallography.net/
#
# All data on this site have been placed in the public domain by the
# contributors.
#
data_4344201
loop_
_publ_author_name
'Burns, R.C.'
'O'Donnell, T.A.'
_publ_section_title
;
 Preparation and Characterization of Osmium Pentachloride, a New Binary
 Chloride of Osmium
;
_journal_name_full               'Inorganic Chemistry'
_journal_page_first              3081
_journal_page_last               3086
_journal_volume                  18
_journal_year                    1979
_chemical_formula_sum            Os
_chemical_name_systematic        'Os Cl5'
_space_group_IT_number           14
_symmetry_space_group_name_Hall  '-P 2ybc'
_symmetry_space_group_name_H-M   'P 1 21/c 1'
_cell_angle_alpha                90
_cell_angle_beta                 109
_cell_angle_gamma                90
_cell_formula_units_Z            8
_cell_length_a                   9.17
_cell_length_b                   11.5
_cell_length_c                   11.97
_cell_volume                     1193.525
_citation_journal_id_ASTM        INOCAJ
_cod_data_source_file            Burns_INOCAJ_1979_1957.cif
_cod_data_source_block           Os1
_cod_original_formula_sum        Os1
_cod_database_code               4344201
loop_
_symmetry_equiv_pos_as_xyz
x,y,z
-x,y+1/2,-z+1/2
-x,-y,-z
x,-y-1/2,z-1/2
loop_
_atom_site_label
_atom_site_type_symbol
_atom_site_fract_x
_atom_site_fract_y
_atom_site_fract_z
_atom_site_occupancy
_atom_site_U_iso_or_equiv
Os2 Os+5 -0.11 0.132 0.188 1 0.0
Os1 Os+5 0.308 0.12 0.29 1 0.0
