#------------------------------------------------------------------------------
#$Date: 2015-10-10 00:30:49 +0300 (Sat, 10 Oct 2015) $
#$Revision: 163417 $
#$URL: svn://www.crystallography.net/cod/cif/1/53/59/1535911.cif $
#------------------------------------------------------------------------------
#
# This file is available in the Crystallography Open Database (COD),
# http://www.crystallography.net/
#
# All data on this site have been placed in the public domain by the
# contributors.
#
data_1535911
loop_
_publ_author_name
'Eckerlin, P.'
'Kischio, W.'
_publ_section_title
;
 Darstellung und Kristallstruktur der Phasen Sn4 P3 und Sn4 As3
;
_journal_name_full
'Zeitschrift fuer Anorganische und Allgemeine Chemie'
_journal_page_first              1
_journal_page_last               9
_journal_volume                  363
_journal_year                    1968
_chemical_formula_sum            'As3 Sn3.8'
_chemical_name_systematic        'Sn3.8 As3'
_space_group_IT_number           166
_symmetry_space_group_name_Hall  '-R 3 2"'
_symmetry_space_group_name_H-M   'R -3 m :H'
_cell_angle_alpha                90
_cell_angle_beta                 90
_cell_angle_gamma                120
_cell_formula_units_Z            3
_cell_length_a                   4.09
_cell_length_b                   4.09
_cell_length_c                   36.06
_cell_volume                     522.400
_citation_journal_id_ASTM        ZAACAB
_cod_data_source_file            Eckerlin_ZAACAB_1968_902.cif
_cod_data_source_block           As3Sn3.8
_cod_original_cell_volume        522.3998
_cod_database_code               1535911
loop_
_symmetry_equiv_pos_as_xyz
x,y,z
-y,x-y,z
-x+y,-x,z
y,x,-z
-x,-x+y,-z
x-y,-y,-z
-x,-y,-z
y,-x+y,-z
x-y,x,-z
-y,-x,z
x,x-y,z
-x+y,y,z
x+2/3,y+1/3,z+1/3
-y+2/3,x-y+1/3,z+1/3
-x+y+2/3,-x+1/3,z+1/3
y+2/3,x+1/3,-z+1/3
-x+2/3,-x+y+1/3,-z+1/3
x-y+2/3,-y+1/3,-z+1/3
-x+2/3,-y+1/3,-z+1/3
y+2/3,-x+y+1/3,-z+1/3
x-y+2/3,x+1/3,-z+1/3
-y+2/3,-x+1/3,z+1/3
x+2/3,x-y+1/3,z+1/3
-x+y+2/3,y+1/3,z+1/3
x+1/3,y+2/3,z+2/3
-y+1/3,x-y+2/3,z+2/3
-x+y+1/3,-x+2/3,z+2/3
y+1/3,x+2/3,-z+2/3
-x+1/3,-x+y+2/3,-z+2/3
x-y+1/3,-y+2/3,-z+2/3
-x+1/3,-y+2/3,-z+2/3
y+1/3,-x+y+2/3,-z+2/3
x-y+1/3,x+2/3,-z+2/3
-y+1/3,-x+2/3,z+2/3
x+1/3,x-y+2/3,z+2/3
-x+y+1/3,y+2/3,z+2/3
loop_
_atom_site_label
_atom_site_type_symbol
_atom_site_fract_x
_atom_site_fract_y
_atom_site_fract_z
_atom_site_occupancy
_atom_site_U_iso_or_equiv
As2 As 0 0 0 1 0.0
Sn2 Sn 0 0 0.2889 0.95 0.0
Sn1 Sn 0 0 0.1358 0.95 0.0
As1 As 0 0 0.4299 1 0.0
