#------------------------------------------------------------------------------
#$Date: 2016-02-13 21:28:24 +0200 (Sat, 13 Feb 2016) $
#$Revision: 176429 $
#$URL: svn://www.crystallography.net/cod/cif/4/12/46/4124648.cif $
#------------------------------------------------------------------------------
#
# This file is available in the Crystallography Open Database (COD),
# http://www.crystallography.net/
#
# All data on this site have been placed in the public domain by the
# contributors.
#
data_4124648
loop_
_publ_author_name
'Geller, S.'
_publ_section_title
;
 The Crystal Structures of Rh Te and Rh Te2
;
_journal_name_full               'Journal of the American Chemical Society'
_journal_page_first              2641
_journal_page_last               2644
_journal_volume                  77
_journal_year                    1955
_chemical_formula_sum            'Rh Te2'
_chemical_name_systematic        'Rh Te2'
_space_group_IT_number           205
_symmetry_space_group_name_Hall  '-P 2ac 2ab 3'
_symmetry_space_group_name_H-M   'P a -3'
_cell_angle_alpha                90
_cell_angle_beta                 90
_cell_angle_gamma                90
_cell_formula_units_Z            4
_cell_length_a                   6.441
_cell_length_b                   6.441
_cell_length_c                   6.441
_cell_volume                     267.214
_citation_journal_id_ASTM        JACSAT
_cod_data_source_file            Geller_JACSAT_1955_1455.cif
_cod_data_source_block           Rh1Te2
_cod_original_cell_volume        267.2144
_cod_original_formula_sum        'Rh1 Te2'
_cod_database_code               4124648
loop_
_symmetry_equiv_pos_as_xyz
x,y,z
-x+1/2,-y,z+1/2
x+1/2,-y+1/2,-z
-x,y+1/2,-z+1/2
z,x,y
-z+1/2,-x,y+1/2
z+1/2,-x+1/2,-y
-z,x+1/2,-y+1/2
y,z,x
y+1/2,-z+1/2,-x
-y,z+1/2,-x+1/2
-y+1/2,-z,x+1/2
-x,-y,-z
x-1/2,y,-z-1/2
-x-1/2,y-1/2,z
x,-y-1/2,z-1/2
-z,-x,-y
z-1/2,x,-y-1/2
-z-1/2,x-1/2,y
z,-x-1/2,y-1/2
-y,-z,-x
-y-1/2,z-1/2,x
y,-z-1/2,x-1/2
y-1/2,z,-x-1/2
loop_
_atom_site_label
_atom_site_type_symbol
_atom_site_fract_x
_atom_site_fract_y
_atom_site_fract_z
_atom_site_occupancy
_atom_site_U_iso_or_equiv
Rh1 Rh+3 0 0 0 1 0.0
Te1 Te-1 0.362 0.362 0.362 1 0.0
