#------------------------------------------------------------------------------
#$Date: 2016-02-16 22:30:59 +0200 (Tue, 16 Feb 2016) $
#$Revision: 176467 $
#$URL: svn://www.crystallography.net/cod/cif/4/02/78/4027827.cif $
#------------------------------------------------------------------------------
#
# This file is available in the Crystallography Open Database (COD),
# http://www.crystallography.net/
#
# All data on this site have been placed in the public domain by the
# contributors.
#
data_4027827
loop_
_publ_author_name
'Mulford, R.N.R.'
'Eick, H.A.'
_publ_section_title
;
 Americium and neptunium borides
;
_journal_name_full               'Journal of Inorganic and Nuclear Chemistry'
_journal_page_first              371
_journal_page_last               375
_journal_paper_doi               10.1016/0022-1902(69)80480-X
_journal_volume                  31
_journal_year                    1969
_chemical_formula_sum            'B2 Np'
_chemical_name_systematic        'Np B2'
_space_group_IT_number           191
_symmetry_space_group_name_Hall  '-P 6 2'
_symmetry_space_group_name_H-M   'P 6/m m m'
_cell_angle_alpha                90
_cell_angle_beta                 90
_cell_angle_gamma                120
_cell_formula_units_Z            1
_cell_length_a                   3.165
_cell_length_b                   3.165
_cell_length_c                   3.975
_cell_volume                     34.484
_citation_journal_id_ASTM        JINCAO
_cod_data_source_file            boron_292.cif
_cod_data_source_block           B2Np1
_cod_original_cell_volume        34.4838
_cod_original_formula_sum        'B2 Np1'
_cod_database_code               4027827
loop_
_symmetry_equiv_pos_as_xyz
x,y,z
x-y,x,z
-y,x-y,z
-x,-y,z
-x+y,-x,z
y,-x+y,z
-y,-x,-z
x-y,-y,-z
x,x-y,-z
y,x,-z
-x+y,y,-z
-x,-x+y,-z
-x,-y,-z
-x+y,-x,-z
y,-x+y,-z
x,y,-z
x-y,x,-z
-y,x-y,-z
y,x,z
-x+y,y,z
-x,-x+y,z
-y,-x,z
x-y,-y,z
x,x-y,z
loop_
_atom_site_label
_atom_site_type_symbol
_atom_site_fract_x
_atom_site_fract_y
_atom_site_fract_z
_atom_site_occupancy
_atom_site_U_iso_or_equiv
B1 B 0.3333 0.6667 0.5 1 0.0
Np1 Np 0 0 0 1 0.0
