#------------------------------------------------------------------------------
#$Date: 2016-03-05 12:17:48 +0200 (Sat, 05 Mar 2016) $
#$Revision: 177861 $
#$URL: svn://www.crystallography.net/cod/cif/7/03/80/7038072.cif $
#------------------------------------------------------------------------------
#
# This file is available in the Crystallography Open Database (COD),
# http://www.crystallography.net/
#
# All data on this site have been placed in the public domain by the
# contributors.
#
data_7038072
loop_
_publ_author_name
'Fils\/o, M \/O'
'Eikeland, E.'
'Zhang, J.'
'Madsen, S. R.'
'Iversen, B. B.'
_publ_section_title
;
 Atomic and electronic structure transformations in SnS2 at high
 pressures: a joint single crystal X-ray diffraction and DFT study.
;
_journal_issue                   9
_journal_name_full
'Dalton transactions (Cambridge, England : 2003)'
_journal_page_first              3798
_journal_page_last               3805
_journal_paper_doi               10.1039/c5dt04532k
_journal_volume                  45
_journal_year                    2016
_chemical_formula_moiety         'S2 Sn'
_chemical_formula_sum            'S2 Sn'
_chemical_formula_weight         182.81
_chemical_name_common            Tindisulfide
_chemical_name_systematic
;
 ? 
;
_space_group_crystal_system      trigonal
_space_group_IT_number           164
_space_group_name_Hall           '-P 3 2"'
_space_group_name_H-M_alt        'P -3 m 1'
_symmetry_space_group_name_Hall  '-P 3 2"'
_symmetry_space_group_name_H-M   'P -3 m 1'
_atom_sites_solution_primary     heavy
_atom_sites_solution_secondary   difmap
_audit_creation_date             2015-05-08
_audit_creation_method
;
Olex2 1.2
(compiled 2015.01.26 svn.r3150 for OlexSys, GUI svn.r4998)
;
_cell_angle_alpha                90.00
_cell_angle_beta                 90.00
_cell_angle_gamma                120.00
_cell_formula_units_Z            1
_cell_length_a                   3.5455(3)
_cell_length_b                   3.5455(3)
_cell_length_c                   5.257(3)
_cell_measurement_reflns_used    290
_cell_measurement_temperature    296(2)
_cell_measurement_theta_max      24.956
_cell_measurement_theta_min      5.240
_cell_volume                     57.23(3)
_computing_cell_refinement       'SAINT v7.68A (Bruker, 2009)'
_computing_data_reduction        'SAINT v7.68A (Bruker, 2009)'
_computing_molecular_graphics    'Olex2 (Dolomanov et al., 2009)'
_computing_publication_material  'Olex2 (Dolomanov et al., 2009)'
_computing_structure_refinement  'ShelXL (Sheldrick, 2008)'
_computing_structure_solution    'ShelXS (Sheldrick, 2008)'
_diffrn_ambient_temperature      296.15
_diffrn_measured_fraction_theta_full 0.337
_diffrn_measured_fraction_theta_max 0.337
_diffrn_measurement_device_type  'Bruker APEX-II CCD'
_diffrn_measurement_method       '\f and \w scans'
_diffrn_radiation_monochromator  graphite
_diffrn_radiation_type           AgK\a
_diffrn_radiation_wavelength     0.56086
_diffrn_reflns_av_R_equivalents  0.0178
_diffrn_reflns_av_unetI/netI     0.0101
_diffrn_reflns_limit_h_max       5
_diffrn_reflns_limit_h_min       -5
_diffrn_reflns_limit_k_max       5
_diffrn_reflns_limit_k_min       -5
_diffrn_reflns_limit_l_max       2
_diffrn_reflns_limit_l_min       -2
_diffrn_reflns_number            290
_diffrn_reflns_theta_full        24.96
_diffrn_reflns_theta_max         24.96
_diffrn_reflns_theta_min         5.24
_diffrn_source                   'fine-focus sealed tube'
_diffrn_standards_number         0
_exptl_absorpt_coefficient_mu    6.577
_exptl_absorpt_correction_T_max  0.7452
_exptl_absorpt_correction_T_min  0.6880
_exptl_absorpt_correction_type   multi-scan
_exptl_absorpt_process_details
;
SADABS-2008/1 (Bruker,2008) was used for absorption correction.
wR2(int) was 0.0685 before and 0.0249 after correction.
The Ratio of minimum to maximum transmission is 0.9232.
The \l/2 correction factor is 0.0015.
;
_exptl_crystal_colour            red
_exptl_crystal_density_diffrn    5.304
_exptl_crystal_density_method    'not measured'
_exptl_crystal_description       platelet
_exptl_crystal_F_000             82
_exptl_crystal_size_max          0.09
_exptl_crystal_size_mid          0.08
_exptl_crystal_size_min          0.02
_refine_diff_density_max         1.465
_refine_diff_density_min         -0.840
_refine_diff_density_rms         0.289
_refine_ls_extinction_coef       0.17(10)
_refine_ls_extinction_expression Fc^*^=kFc[1+0.001xFc^2^\l^3^/sin(2\q)]^-1/4^
_refine_ls_extinction_method     SHELXL
_refine_ls_goodness_of_fit_ref   1.549
_refine_ls_hydrogen_treatment    undef
_refine_ls_matrix_type           full
_refine_ls_number_parameters     5
_refine_ls_number_reflns         34
_refine_ls_number_restraints     0
_refine_ls_restrained_S_all      1.549
_refine_ls_R_factor_all          0.0180
_refine_ls_R_factor_gt           0.0180
_refine_ls_shift/su_max          0.000
_refine_ls_shift/su_mean         0.000
_refine_ls_structure_factor_coef Fsqd
_refine_ls_weighting_details
'calc w=1/[\s^2^(Fo^2^)+(0.0330P)^2^+0.0000P] where P=(Fo^2^+2Fc^2^)/3'
_refine_ls_weighting_scheme      calc
_refine_ls_wR_factor_gt          0.0503
_refine_ls_wR_factor_ref         0.0503
_reflns_number_gt                34
_reflns_number_total             34
_reflns_threshold_expression     >2sigma(I)
_iucr_refine_instructions_details
;
TITL SnS2_maaling_0ms in P-3m1 #164
REM reset to P-3m1 #164
CELL 0.56086 3.5455 3.5455 5.257 90 90 120
ZERR 1 0.0003 0.0003 0.0028 0 0 0
LATT 1
SYMM -Y,+X-Y,+Z
SYMM +Y-X,-X,+Z
SYMM -Y+X,-Y,-Z
SYMM -X,-X+Y,-Z
SYMM +Y,+X,-Z
SFAC S Sn
UNIT 2 1
 
L.S. 10 0 0
PLAN  20
TEMP 23
BOND
fmap 2 53
ACTA
REM <olex2.extras>
REM <HklSrc "%.\\SnS2_maaling_0ms.hkl">
REM </olex2.extras>
 
WGHT    0.000000   12.599100
EXTI    0.356952
FVAR       0.68821
S1    1    0.333333    0.666667    0.273788    10.16667    0.01326
SN3   2    0.000000    0.000000    0.000000    10.08333    0.01077
HKLF 4
 
REM  SnS2_maaling_0ms in P-3m1 #164
REM R1 =  0.0877 for     36 Fo > 4sig(Fo)  and  0.0877 for all     36 data
REM      5 parameters refined using      0 restraints
 
END  
     
WGHT      0.0000     12.5991 
REM Highest difference peak  4.571,  deepest hole -3.914,  1-sigma level  0.976
Q1    1   0.0000  0.0000 -0.2300  10.16667  0.05    4.57
Q2    1   0.0000  1.0000  0.5000  10.08333  0.05    3.61
Q3    1   0.8052  1.0000  0.5000  10.50000  0.05    3.35
Q4    1  -0.1328 -0.2656  0.2533  10.50000  0.05    3.21
Q5    1   0.1328  0.2657  0.2308  10.50000  0.05    3.12
Q6    1   0.2298  0.0000  0.0000  10.50000  0.05    3.11
Q7    1   0.6011  0.6003  0.2466  11.00000  0.05    2.77
Q8    1   0.3333  0.6667  0.4979  10.16667  0.05    2.70
Q9    1   0.7392  0.4784  0.2541  10.50000  0.05    2.51
Q10   1   0.1989  0.3979  0.5021  10.50000  0.05    2.40
Q11   1   0.4538  0.5462  0.4883  10.50000  0.05    2.28
Q12   1   0.3333  0.6667  0.0390  10.16667  0.05    2.21
Q13   1   0.1991  0.3982  0.0077  10.50000  0.05    2.12
Q14   1   0.4538  0.5462 -0.0097  10.50000  0.05    2.11
Q15   1   0.2628  0.5255  0.2435  10.50000  0.05    2.00

REM The information below was added by Olex2.
REM
REM R1 = 0.0877 for 36 Fo > 4sig(Fo) and 0.0877 for all 292 data
REM n/a parameters refined using n/a restraints
REM Highest difference peak 4.57, deepest hole -3.91
REM Mean Shift 0, Max Shift 0.000.

REM +++ Tabular Listing of Refinement Information +++
REM R1_all = 0.0877
REM R1_gt = 0.0877
REM wR_ref = 0.2240
REM GOOF = 1.498
REM Shift_max = 0.000
REM Shift_mean = 0
REM Reflections_all = 292
REM Reflections_gt = 36
REM Parameters = n/a
REM Hole = -3.91
REM Peak = 4.57
REM Flack = n/a
;
_cod_data_source_file            c5dt04532k15.cif
_cod_data_source_block           sns2_maaling_0ms
_cod_depositor_comments
'Adding full bibliography for 7038069--7038082.cif.'
_cod_database_code               7038072
loop_
_space_group_symop_id
_space_group_symop_operation_xyz
1 'x, y, z'
2 '-y, x-y, z'
3 '-x+y, -x, z'
4 'x-y, -y, -z'
5 '-x, -x+y, -z'
6 'y, x, -z'
7 '-x, -y, -z'
8 'y, -x+y, -z'
9 'x-y, x, -z'
10 '-x+y, y, z'
11 'x, x-y, z'
12 '-y, -x, z'
loop_
_atom_site_label
_atom_site_type_symbol
_atom_site_fract_x
_atom_site_fract_y
_atom_site_fract_z
_atom_site_U_iso_or_equiv
_atom_site_adp_type
_atom_site_occupancy
_atom_site_calc_flag
_atom_site_site_symmetry_order
_atom_site_refinement_flags_posn
_atom_site_refinement_flags_adp
_atom_site_refinement_flags_occupancy
S1 S 0.3333 0.6667 0.2738(18) 0.0077(6) Uiso 1 d 6 S T P
Sn3 Sn 0.0000 0.0000 0.0000 0.0060(5) Uiso 1 d 12 S T P
loop_
_atom_type_symbol
_atom_type_description
_atom_type_scat_dispersion_real
_atom_type_scat_dispersion_imag
_atom_type_scat_source
S S 0.0826 0.0763 'International Tables Vol C Tables 4.2.6.8 and 6.1.1.4'
Sn Sn -1.1587 0.9299 'International Tables Vol C Tables 4.2.6.8 and 6.1.1.4'
loop_
_geom_angle_atom_site_label_1
_geom_angle_atom_site_label_2
_geom_angle_atom_site_label_3
_geom_angle
_geom_angle_site_symmetry_1
_geom_angle_site_symmetry_3
Sn3 S1 Sn3 90.2(3) 1_565 .
Sn3 S1 Sn3 90.2(3) 1_565 1_665
Sn3 S1 Sn3 90.2(3) . 1_665
S1 Sn3 S1 89.8(3) 7_565 1_445
S1 Sn3 S1 89.8(3) . 7_665
S1 Sn3 S1 180.0 7_665 1_445
S1 Sn3 S1 90.2(3) . 1_445
S1 Sn3 S1 90.2(3) 7 7_665
S1 Sn3 S1 89.8(3) 7_565 .
S1 Sn3 S1 89.8(3) 1_545 7_665
S1 Sn3 S1 90.2(3) 1_545 .
S1 Sn3 S1 89.8(3) 7 1_445
S1 Sn3 S1 90.2(3) 7_565 7
S1 Sn3 S1 90.2(3) 1_545 1_445
S1 Sn3 S1 89.8(3) 1_545 7
S1 Sn3 S1 180.0 7_565 1_545
S1 Sn3 S1 180.0 . 7
S1 Sn3 S1 90.2(3) 7_565 7_665
loop_
_geom_bond_atom_site_label_1
_geom_bond_atom_site_label_2
_geom_bond_distance
_geom_bond_site_symmetry_2
S1 Sn3 2.503(6) 1_565
S1 Sn3 2.503(6) .
S1 Sn3 2.503(6) 1_665
Sn3 S1 2.503(6) 1_445
Sn3 S1 2.502(6) 1_545
Sn3 S1 2.503(6) 7
Sn3 S1 2.502(6) 7_565
Sn3 S1 2.503(6) 7_665
