#------------------------------------------------------------------------------
#$Date: 2017-10-06 19:24:22 +0300 (Fri, 06 Oct 2017) $
#$Revision: 201816 $
#$URL: file:///home/coder/svn-repositories/cod/cif/9/01/57/9015702.cif $
#------------------------------------------------------------------------------
#
# This file is available in the Crystallography Open Database (COD),
# http://www.crystallography.net/. The original data for this entry
# were provided the American Mineralogist Crystal Structure Database,
# http://rruff.geo.arizona.edu/AMS/amcsd.php
#
# The file may be used within the scientific community so long as
# proper attribution is given to the journal article from which the
# data were obtained.
#
data_9015702
loop_
_publ_author_name
'Roberts, A. C.'
'Venance, K. E.'
'Seward, T. M.'
'Grice, J. D.'
'Paar, W. H.'
_publ_section_title
;
 Lafossaite, a new mineral from the La Fossa Crater, Vulcano, Italy
;
_journal_name_full               'The Mineralogical Record'
_journal_page_first              165
_journal_page_last               168
_journal_volume                  37
_journal_year                    2006
_chemical_compound_source        'La Fossa Crater, Vulcano, Italy'
_chemical_formula_sum            'Cl Tl'
_chemical_name_mineral           Lafossaite
_space_group_IT_number           221
_symmetry_space_group_name_Hall  '-P 4 2 3'
_symmetry_space_group_name_H-M   'P m -3 m'
_cell_angle_alpha                90
_cell_angle_beta                 90
_cell_angle_gamma                90
_cell_length_a                   3.901
_cell_length_b                   3.901
_cell_length_c                   3.901
_cell_volume                     59.365
_database_code_amcsd             0018089
_exptl_crystal_density_diffrn    6.709
_cod_original_sg_symbol_H-M      'P m 3 m'
_cod_original_formula_sum        'Tl Cl'
_cod_database_code               9015702
loop_
_space_group_symop_operation_xyz
x,y,z
z,-x,y
-y,z,-x
x,-y,z
-z,x,-y
y,-z,x
-x,y,-z
x,-z,-y
-z,y,x
y,-x,-z
-x,z,y
z,-y,-x
-y,x,z
x,z,y
-z,-y,-x
y,x,z
-x,-z,-y
z,y,x
-y,-x,-z
z,x,-y
-y,-z,x
x,y,-z
-z,-x,y
y,z,-x
-x,-y,z
-z,x,y
y,-z,-x
-x,y,z
z,-x,-y
-y,z,x
x,-y,-z
-x,z,-y
z,-y,x
-y,x,-z
x,-z,y
-z,y,-x
y,-x,z
-x,-z,y
z,y,-x
-y,-x,z
x,z,-y
-z,-y,x
y,x,-z
-z,-x,-y
y,z,x
-x,-y,-z
z,x,y
-y,-z,-x
loop_
_atom_site_label
_atom_site_fract_x
_atom_site_fract_y
_atom_site_fract_z
Tl 0.00000 0.00000 0.00000
Cl 0.50000 0.50000 0.50000
loop_
_cod_related_entry_id
_cod_related_entry_database
_cod_related_entry_code
1 AMCSD 0018089
