#------------------------------------------------------------------------------
#$Date: 2016-02-13 21:28:24 +0200 (Sat, 13 Feb 2016) $
#$Revision: 176429 $
#$URL: svn://www.crystallography.net/cod/cif/2/31/10/2311034.cif $
#------------------------------------------------------------------------------
#
# This file is available in the Crystallography Open Database (COD),
# http://www.crystallography.net/. The original data for this entry
# were provided by IUCr Journals, http://journals.iucr.org/.
#
# The file may be used within the scientific community so long as
# proper attribution is given to the journal article from which the
# data were obtained.
#
data_2311034
loop_
_publ_author_name
'Zalkin, A.'
'Templeton, D.H.'
_publ_section_title
;
 The crystal structures of Ce B4, Th B4 and U B4
;
_journal_name_full               'Acta Crystallographica (1,1948-23,1967)'
_journal_page_first              269
_journal_page_last               272
_journal_volume                  6
_journal_year                    1953
_chemical_formula_sum            'B4 Ce'
_chemical_name_systematic        'Ce B4'
_space_group_IT_number           127
_symmetry_space_group_name_Hall  '-P 4 2ab'
_symmetry_space_group_name_H-M   'P 4/m b m'
_cell_angle_alpha                90
_cell_angle_beta                 90
_cell_angle_gamma                90
_cell_formula_units_Z            4
_cell_length_a                   7.205
_cell_length_b                   7.205
_cell_length_c                   4.09
_cell_volume                     212.320
_citation_journal_id_ASTM        ACCRA9
_cod_data_source_file            Zalkin_ACCRA9_1953_195.cif
_cod_data_source_block           B4Ce1
_cod_original_cell_volume        212.3202
_cod_original_formula_sum        'B4 Ce1'
_cod_database_code               2311034
loop_
_symmetry_equiv_pos_as_xyz
x,y,z
-y,x,z
-x,-y,z
y,-x,z
x+1/2,-y+1/2,-z
y+1/2,x+1/2,-z
-x+1/2,y+1/2,-z
-y+1/2,-x+1/2,-z
-x,-y,-z
y,-x,-z
x,y,-z
-y,x,-z
-x-1/2,y-1/2,z
-y-1/2,-x-1/2,z
x-1/2,-y-1/2,z
y-1/2,x-1/2,z
loop_
_atom_site_label
_atom_site_type_symbol
_atom_site_fract_x
_atom_site_fract_y
_atom_site_fract_z
_atom_site_occupancy
_atom_site_U_iso_or_equiv
B2 B 0.087 0.587 0.5 1 0.0
Ce1 Ce 0.313 0.813 0 1 0.0
B3 B 0.17 0.042 0.5 1 0.0
B1 B 0 0 0.212 1 0.0
