#------------------------------------------------------------------------------
#$Date: 2016-01-09 14:57:59 +0200 (Sat, 09 Jan 2016) $
#$Revision: 174254 $
#$URL: svn://www.crystallography.net/cod/cif/2/31/10/2311076.cif $
#------------------------------------------------------------------------------
#
# This file is available in the Crystallography Open Database (COD),
# http://www.crystallography.net/. The original data for this entry
# were provided by IUCr Journals, http://journals.iucr.org/.
#
# The file may be used within the scientific community so long as
# proper attribution is given to the journal article from which the
# data were obtained.
#
data_2311076
loop_
_publ_author_name
'Grison, E.'
'Eriks, K.'
'de Vries, J.L.'
_publ_section_title
;
 Structure Cristalline de l'Anhydride Azotique, N2 O5
;
_journal_name_full               'Acta Crystallographica (1,1948-23,1967)'
_journal_page_first              290
_journal_page_last               294
_journal_volume                  3
_journal_year                    1950
_chemical_formula_sum            'N2 O5'
_chemical_name_systematic        'N2 O5'
_space_group_IT_number           194
_symmetry_space_group_name_Hall  '-P 6c 2c'
_symmetry_space_group_name_H-M   'P 63/m m c'
_cell_angle_alpha                90
_cell_angle_beta                 90
_cell_angle_gamma                120
_cell_formula_units_Z            2
_cell_length_a                   5.41
_cell_length_b                   5.41
_cell_length_c                   6.57
_cell_volume                     166.529
_citation_journal_id_ASTM        ACCRA9
_cod_data_source_file            Grison_ACCRA9_1950_1806.cif
_cod_data_source_block           N2O5
_cod_original_cell_volume        166.5293
_cod_database_code               2311076
loop_
_symmetry_equiv_pos_as_xyz
x,y,z
x-y,x,z+1/2
-y,x-y,z
-x,-y,z+1/2
-x+y,-x,z
y,-x+y,z+1/2
-y,-x,-z+1/2
x-y,-y,-z
x,x-y,-z+1/2
y,x,-z
-x+y,y,-z+1/2
-x,-x+y,-z
-x,-y,-z
-x+y,-x,-z-1/2
y,-x+y,-z
x,y,-z-1/2
x-y,x,-z
-y,x-y,-z-1/2
y,x,z-1/2
-x+y,y,z
-x,-x+y,z-1/2
-y,-x,z
x-y,-y,z-1/2
x,x-y,z
loop_
_atom_site_label
_atom_site_type_symbol
_atom_site_fract_x
_atom_site_fract_y
_atom_site_fract_z
_atom_site_occupancy
_atom_site_U_iso_or_equiv
O1 O-2 0.1327 0.2654 0.25 1 0.0
N2 N+5 0.6667 0.3333 0.25 1 0.0
O2 O-2 0.3333 0.6667 -0.0743 1 0.0
N1 N+5 0 0 0.25 1 0.0
