#------------------------------------------------------------------------------
#$Date: 2016-02-13 21:28:24 +0200 (Sat, 13 Feb 2016) $
#$Revision: 176429 $
#$URL: svn://www.crystallography.net/cod/cif/2/31/10/2311052.cif $
#------------------------------------------------------------------------------
#
# This file is available in the Crystallography Open Database (COD),
# http://www.crystallography.net/. The original data for this entry
# were provided by IUCr Journals, http://journals.iucr.org/.
#
# The file may be used within the scientific community so long as
# proper attribution is given to the journal article from which the
# data were obtained.
#
data_2311052
loop_
_publ_author_name
'Rieger, W.'
'Parthe, E.'
_publ_section_title
;
 Alkaline earth silicides, germanides and stannides with Cr B structure
 type
;
_journal_name_full               'Acta Crystallographica (1,1948-23,1967)'
_journal_page_first              919
_journal_page_last               922
_journal_volume                  22
_journal_year                    1967
_chemical_formula_sum            'Ba Sn'
_chemical_name_systematic        'Ba Sn'
_space_group_IT_number           63
_symmetry_space_group_name_Hall  '-C 2c 2'
_symmetry_space_group_name_H-M   'C m c m'
_cell_angle_alpha                90
_cell_angle_beta                 90
_cell_angle_gamma                90
_cell_formula_units_Z            4
_cell_length_a                   5.31
_cell_length_b                   12.485
_cell_length_c                   4.65
_cell_volume                     308.273
_citation_journal_id_ASTM        ACCRA9
_cod_data_source_file            Rieger_ACCRA9_1967_1194.cif
_cod_data_source_block           Ba1Sn1
_cod_original_cell_volume        308.2734
_cod_original_formula_sum        'Ba1 Sn1'
_cod_database_code               2311052
loop_
_symmetry_equiv_pos_as_xyz
x,y,z
-x,-y,z+1/2
x,-y,-z
-x,y,-z+1/2
-x,-y,-z
x,y,-z-1/2
-x,y,z
x,-y,z-1/2
x+1/2,y+1/2,z
-x+1/2,-y+1/2,z+1/2
x+1/2,-y+1/2,-z
-x+1/2,y+1/2,-z+1/2
-x+1/2,-y+1/2,-z
x+1/2,y+1/2,-z-1/2
-x+1/2,y+1/2,z
x+1/2,-y+1/2,z-1/2
loop_
_atom_site_label
_atom_site_type_symbol
_atom_site_fract_x
_atom_site_fract_y
_atom_site_fract_z
_atom_site_occupancy
_atom_site_U_iso_or_equiv
Sn1 Sn 0 0.425 0.25 1 0.0
Ba1 Ba 0 0.132 0.25 1 0.0
