#------------------------------------------------------------------------------
#$Date: 2016-02-13 21:28:24 +0200 (Sat, 13 Feb 2016) $
#$Revision: 176429 $
#$URL: svn://www.crystallography.net/cod/cif/2/31/10/2311002.cif $
#------------------------------------------------------------------------------
#
# This file is available in the Crystallography Open Database (COD),
# http://www.crystallography.net/. The original data for this entry
# were provided by IUCr Journals, http://journals.iucr.org/.
#
# The file may be used within the scientific community so long as
# proper attribution is given to the journal article from which the
# data were obtained.
#
data_2311002
loop_
_publ_author_name
'Baenziger, N.C.'
'Snow, A.I.'
'Rundle, R.E.'
_publ_section_title
;
 Structures of the compounds Th2 Cu, Th Cu2, Th2 Zn and Th Hg3
;
_journal_name_full               'Acta Crystallographica (1,1948-23,1967)'
_journal_page_first              93
_journal_page_last               94
_journal_volume                  9
_journal_year                    1956
_chemical_formula_sum            'Th2 Zn'
_chemical_name_systematic        'Th2 Zn'
_space_group_IT_number           140
_symmetry_space_group_name_Hall  '-I 4 2c'
_symmetry_space_group_name_H-M   'I 4/m c m'
_cell_angle_alpha                90
_cell_angle_beta                 90
_cell_angle_gamma                90
_cell_formula_units_Z            4
_cell_length_a                   7.6
_cell_length_b                   7.6
_cell_length_c                   5.64
_cell_volume                     325.766
_citation_journal_id_ASTM        ACCRA9
_cod_data_source_file            Baenziger_ACCRA9_1956_162.cif
_cod_data_source_block           Th2Zn1
_cod_original_cell_volume        325.7664
_cod_original_formula_sum        'Th2 Zn1'
_cod_database_code               2311002
loop_
_symmetry_equiv_pos_as_xyz
x,y,z
-y,x,z
-x,-y,z
y,-x,z
x,-y,-z+1/2
y,x,-z+1/2
-x,y,-z+1/2
-y,-x,-z+1/2
-x,-y,-z
y,-x,-z
x,y,-z
-y,x,-z
-x,y,z-1/2
-y,-x,z-1/2
x,-y,z-1/2
y,x,z-1/2
x+1/2,y+1/2,z+1/2
-y+1/2,x+1/2,z+1/2
-x+1/2,-y+1/2,z+1/2
y+1/2,-x+1/2,z+1/2
x+1/2,-y+1/2,-z+1
y+1/2,x+1/2,-z+1
-x+1/2,y+1/2,-z+1
-y+1/2,-x+1/2,-z+1
-x+1/2,-y+1/2,-z+1/2
y+1/2,-x+1/2,-z+1/2
x+1/2,y+1/2,-z+1/2
-y+1/2,x+1/2,-z+1/2
-x+1/2,y+1/2,z
-y+1/2,-x+1/2,z
x+1/2,-y+1/2,z
y+1/2,x+1/2,z
loop_
_atom_site_label
_atom_site_type_symbol
_atom_site_fract_x
_atom_site_fract_y
_atom_site_fract_z
_atom_site_occupancy
_atom_site_U_iso_or_equiv
Th1 Th 0.167 0.667 0 1 0.0
Zn1 Zn 0 0 0.25 1 0.0
