#------------------------------------------------------------------------------
#$Date: 2016-02-13 21:28:24 +0200 (Sat, 13 Feb 2016) $
#$Revision: 176429 $
#$URL: svn://www.crystallography.net/cod/cif/2/31/09/2310995.cif $
#------------------------------------------------------------------------------
#
# This file is available in the Crystallography Open Database (COD),
# http://www.crystallography.net/. The original data for this entry
# were provided by IUCr Journals, http://journals.iucr.org/.
#
# The file may be used within the scientific community so long as
# proper attribution is given to the journal article from which the
# data were obtained.
#
data_2310995
loop_
_publ_author_name
'Srivastava, M.M.'
'Srivastava, O.N.'
_publ_section_title
;
 Studies of structure, electrical resistivity, and modulated structures in
 Fe Se and Ni Se alloys
;
_journal_name_full               'Acta Crystallographica A (24,1968-38,1982)'
_journal_page_first              S82
_journal_page_last               S82
_journal_volume                  31
_journal_year                    1975
_chemical_formula_sum            'Ni Se'
_chemical_name_systematic        'Ni Se'
_space_group_IT_number           194
_symmetry_space_group_name_Hall  '-P 6c 2c'
_symmetry_space_group_name_H-M   'P 63/m m c'
_cell_angle_alpha                90
_cell_angle_beta                 90
_cell_angle_gamma                120
_cell_formula_units_Z            2
_cell_length_a                   4.04
_cell_length_b                   4.04
_cell_length_c                   6.71
_cell_volume                     94.845
_citation_journal_id_ASTM        ACACBN
_cod_data_source_file            Srivastava_ACACBN_1975_1026.cif
_cod_data_source_block           Ni1Se1
_cod_original_cell_volume        94.84531
_cod_original_formula_sum        'Ni1 Se1'
_cod_database_code               2310995
loop_
_symmetry_equiv_pos_as_xyz
x,y,z
x-y,x,z+1/2
-y,x-y,z
-x,-y,z+1/2
-x+y,-x,z
y,-x+y,z+1/2
-y,-x,-z+1/2
x-y,-y,-z
x,x-y,-z+1/2
y,x,-z
-x+y,y,-z+1/2
-x,-x+y,-z
-x,-y,-z
-x+y,-x,-z-1/2
y,-x+y,-z
x,y,-z-1/2
x-y,x,-z
-y,x-y,-z-1/2
y,x,z-1/2
-x+y,y,z
-x,-x+y,z-1/2
-y,-x,z
x-y,-y,z-1/2
x,x-y,z
loop_
_atom_site_label
_atom_site_type_symbol
_atom_site_fract_x
_atom_site_fract_y
_atom_site_fract_z
_atom_site_occupancy
_atom_site_U_iso_or_equiv
Se1 Se-2 0.3333 0.6667 0.25 1 0.0
Ni1 Ni+2 0 0 0 1 0.0
