#------------------------------------------------------------------------------
#$Date: 2016-02-14 16:26:36 +0200 (Sun, 14 Feb 2016) $
#$Revision: 176435 $
#$URL: svn://www.crystallography.net/cod/cif/2/31/00/2310084.cif $
#------------------------------------------------------------------------------
#
# This file is available in the Crystallography Open Database (COD),
# http://www.crystallography.net/. The original data for this entry
# were provided by IUCr Journals, http://journals.iucr.org/.
#
# The file may be used within the scientific community so long as
# proper attribution is given to the journal article from which the
# data were obtained.
#
data_2310084
loop_
_publ_author_name
'Brown, A.'
_publ_section_title
;
 M X2 compounds of thorium and the polymorphism of thorium disilicide
;
_journal_name_full               'Acta Crystallographica (1,1948-23,1967)'
_journal_page_first              860
_journal_page_last               865
_journal_paper_doi               10.1107/S0365110X61002497
_journal_volume                  14
_journal_year                    1961
_chemical_formula_sum            'Au2 Th'
_chemical_name_systematic        'Au2 Th'
_space_group_IT_number           191
_symmetry_space_group_name_Hall  '-P 6 2'
_symmetry_space_group_name_H-M   'P 6/m m m'
_cell_angle_alpha                90
_cell_angle_beta                 90
_cell_angle_gamma                120
_cell_formula_units_Z            1
_cell_length_a                   4.74
_cell_length_b                   4.74
_cell_length_c                   3.402
_cell_volume                     66.194
_citation_journal_id_ASTM        ACCRA9
_cod_data_source_file            gold_566.cif
_cod_data_source_block           Au2Th1
_cod_original_cell_volume        66.19445
_cod_original_formula_sum        'Au2 Th1'
_cod_database_code               2310084
loop_
_symmetry_equiv_pos_as_xyz
x,y,z
x-y,x,z
-y,x-y,z
-x,-y,z
-x+y,-x,z
y,-x+y,z
-y,-x,-z
x-y,-y,-z
x,x-y,-z
y,x,-z
-x+y,y,-z
-x,-x+y,-z
-x,-y,-z
-x+y,-x,-z
y,-x+y,-z
x,y,-z
x-y,x,-z
-y,x-y,-z
y,x,z
-x+y,y,z
-x,-x+y,z
-y,-x,z
x-y,-y,z
x,x-y,z
loop_
_atom_site_label
_atom_site_type_symbol
_atom_site_fract_x
_atom_site_fract_y
_atom_site_fract_z
_atom_site_occupancy
_atom_site_U_iso_or_equiv
Th1 Th 0 0 0 1 0.0
Au1 Au 0.3333 0.6667 0.5 1 0.0
