#------------------------------------------------------------------------------
#$Date: 2016-02-13 21:28:24 +0200 (Sat, 13 Feb 2016) $
#$Revision: 176429 $
#$URL: svn://www.crystallography.net/cod/cif/2/31/02/2310280.cif $
#------------------------------------------------------------------------------
#
# This file is available in the Crystallography Open Database (COD),
# http://www.crystallography.net/. The original data for this entry
# were provided by IUCr Journals, http://journals.iucr.org/.
#
# The file may be used within the scientific community so long as
# proper attribution is given to the journal article from which the
# data were obtained.
#
data_2310280
loop_
_publ_author_name
'Cromer, D.T.'
'Olsen, C.E.'
_publ_section_title
;
 The crystal structures of Pu Ni3 and Ce Ni3
;
_journal_name_full               'Acta Crystallographica (1,1948-23,1967)'
_journal_page_first              689
_journal_page_last               694
_journal_volume                  12
_journal_year                    1959
_chemical_formula_sum            'Ce Ni3'
_chemical_name_systematic        'Ce Ni3'
_space_group_IT_number           194
_symmetry_space_group_name_Hall  '-P 6c 2c'
_symmetry_space_group_name_H-M   'P 63/m m c'
_cell_angle_alpha                90
_cell_angle_beta                 90
_cell_angle_gamma                120
_cell_formula_units_Z            6
_cell_length_a                   4.98
_cell_length_b                   4.98
_cell_length_c                   16.54
_cell_volume                     355.242
_citation_journal_id_ASTM        ACCRA9
_cod_data_source_file            Cromer_ACCRA9_1959_843.cif
_cod_data_source_block           Ce1Ni3
_cod_original_cell_volume        355.2424
_cod_original_formula_sum        'Ce1 Ni3'
_cod_database_code               2310280
loop_
_symmetry_equiv_pos_as_xyz
x,y,z
x-y,x,z+1/2
-y,x-y,z
-x,-y,z+1/2
-x+y,-x,z
y,-x+y,z+1/2
-y,-x,-z+1/2
x-y,-y,-z
x,x-y,-z+1/2
y,x,-z
-x+y,y,-z+1/2
-x,-x+y,-z
-x,-y,-z
-x+y,-x,-z-1/2
y,-x+y,-z
x,y,-z-1/2
x-y,x,-z
-y,x-y,-z-1/2
y,x,z-1/2
-x+y,y,z
-x,-x+y,z-1/2
-y,-x,z
x-y,-y,z-1/2
x,x-y,z
loop_
_atom_site_label
_atom_site_type_symbol
_atom_site_fract_x
_atom_site_fract_y
_atom_site_fract_z
_atom_site_occupancy
_atom_site_U_iso_or_equiv
Ce1 Ce 0.3333 0.6667 0.25 1 0.0
Ni4 Ni 0.8334 0.6668 0.12715 1 0.0
Ce2 Ce 0.3333 0.6667 0.04178 1 0.0
Ni1 Ni 0 0 0 1 0.0
Ni3 Ni 0.3333 0.6667 0.75 1 0.0
Ni2 Ni 0 0 0.25 1 0.0
