#------------------------------------------------------------------------------
#$Date: 2016-02-13 21:28:24 +0200 (Sat, 13 Feb 2016) $
#$Revision: 176429 $
#$URL: svn://www.crystallography.net/cod/cif/2/31/02/2310294.cif $
#------------------------------------------------------------------------------
#
# This file is available in the Crystallography Open Database (COD),
# http://www.crystallography.net/. The original data for this entry
# were provided by IUCr Journals, http://journals.iucr.org/.
#
# The file may be used within the scientific community so long as
# proper attribution is given to the journal article from which the
# data were obtained.
#
data_2310294
loop_
_publ_author_name
'Gschneidner, K.A.jr.'
_publ_section_title
;
 Crystal structures of some equi-atomic gadolinium compounds
;
_journal_name_full               'Acta Crystallographica (1,1948-23,1967)'
_journal_page_first              1082
_journal_page_last               1083
_journal_volume                  18
_journal_year                    1965
_chemical_formula_sum            'Cu Gd'
_chemical_name_systematic        'Cu Gd'
_space_group_IT_number           221
_symmetry_space_group_name_Hall  '-P 4 2 3'
_symmetry_space_group_name_H-M   'P m -3 m'
_cell_angle_alpha                90
_cell_angle_beta                 90
_cell_angle_gamma                90
_cell_formula_units_Z            1
_cell_length_a                   3.502
_cell_length_b                   3.502
_cell_length_c                   3.502
_cell_volume                     42.949
_citation_journal_id_ASTM        ACCRA9
_cod_data_source_file            Gschneidner_ACCRA9_1965_1468.cif
_cod_data_source_block           Cu1Gd1
_cod_original_cell_volume        42.94854
_cod_original_formula_sum        'Cu1 Gd1'
_cod_database_code               2310294
loop_
_symmetry_equiv_pos_as_xyz
x,y,z
-y,x,z
-x,-y,z
y,-x,z
x,-y,-z
y,x,-z
-x,y,-z
-y,-x,-z
z,x,y
-x,z,y
-z,-x,y
x,-z,y
z,-x,-y
x,z,-y
-z,x,-y
-x,-z,-y
y,z,x
y,-z,-x
z,y,-x
-y,z,-x
-z,-y,-x
-y,-z,x
z,-y,x
-z,y,x
-x,-y,-z
y,-x,-z
x,y,-z
-y,x,-z
-x,y,z
-y,-x,z
x,-y,z
y,x,z
-z,-x,-y
x,-z,-y
z,x,-y
-x,z,-y
-z,x,y
-x,-z,y
z,-x,y
x,z,y
-y,-z,-x
-y,z,x
-z,-y,x
y,-z,x
z,y,x
y,z,-x
-z,y,-x
z,-y,-x
loop_
_atom_site_label
_atom_site_type_symbol
_atom_site_fract_x
_atom_site_fract_y
_atom_site_fract_z
_atom_site_occupancy
_atom_site_U_iso_or_equiv
Gd1 Gd 0.5 0.5 0.5 1 0.0
Cu1 Cu 0 0 0 1 0.0
