#------------------------------------------------------------------------------
#$Date: 2015-07-08 21:18:11 +0300 (Wed, 08 Jul 2015) $
#$Revision: 141303 $
#$URL: svn://www.crystallography.net/cod/cif/2/31/01/2310196.cif $
#------------------------------------------------------------------------------
#
# This file is available in the Crystallography Open Database (COD),
# http://www.crystallography.net/. The original data for this entry
# were provided by IUCr Journals, http://journals.iucr.org/.
#
# The file may be used within the scientific community so long as
# proper attribution is given to the journal article from which the
# data were obtained.
#
data_2310196
loop_
_publ_author_name
'Florio, J.V.'
'Baenziger, N.C.'
'Rundle, R.E.'
_publ_section_title
;
 Compounds of thorium with transition metals. 2. Systems with iron, cobalt
 and nickel
;
_journal_name_full               'Acta Crystallographica (1,1948-23,1967)'
_journal_page_first              367
_journal_page_last               372
_journal_volume                  9
_journal_year                    1956
_chemical_formula_sum            'Ni17 Th2'
_chemical_name_systematic        'Ni17 Th2'
_space_group_IT_number           194
_symmetry_space_group_name_Hall  '-P 6c 2c'
_symmetry_space_group_name_H-M   'P 63/m m c'
_cell_angle_alpha                90
_cell_angle_beta                 90
_cell_angle_gamma                120
_cell_formula_units_Z            2
_cell_length_a                   8.37
_cell_length_b                   8.37
_cell_length_c                   8.14
_cell_volume                     493.862
_citation_journal_id_ASTM        ACCRA9
_cod_data_source_file            Florio_ACCRA9_1956_1538.cif
_cod_data_source_block           Ni17Th2
_cod_original_cell_volume        493.8624
_cod_database_code               2310196
loop_
_symmetry_equiv_pos_as_xyz
x,y,z
x-y,x,z+1/2
-y,x-y,z
-x,-y,z+1/2
-x+y,-x,z
y,-x+y,z+1/2
-y,-x,-z+1/2
x-y,-y,-z
x,x-y,-z+1/2
y,x,-z
-x+y,y,-z+1/2
-x,-x+y,-z
-x,-y,-z
-x+y,-x,-z-1/2
y,-x+y,-z
x,y,-z-1/2
x-y,x,-z
-y,x-y,-z-1/2
y,x,z-1/2
-x+y,y,z
-x,-x+y,z-1/2
-y,-x,z
x-y,-y,z-1/2
x,x-y,z
loop_
_atom_site_label
_atom_site_type_symbol
_atom_site_fract_x
_atom_site_fract_y
_atom_site_fract_z
_atom_site_occupancy
_atom_site_U_iso_or_equiv
Ni4 Ni 0.167 0.334 0 1 0.0
Ni3 Ni 0.333 0 0.25 1 0.0
Th2 Th 0.3333 0.6667 0.75 1 0.0
Ni2 Ni 0.5 0 0 1 0.0
Ni1 Ni 0.3333 0.6667 0.11 1 0.0
Th1 Th 0 0 0.25 1 0.0
