#------------------------------------------------------------------------------
#$Date: 2016-02-13 21:28:24 +0200 (Sat, 13 Feb 2016) $
#$Revision: 176429 $
#$URL: svn://www.crystallography.net/cod/cif/2/31/04/2310465.cif $
#------------------------------------------------------------------------------
#
# This file is available in the Crystallography Open Database (COD),
# http://www.crystallography.net/. The original data for this entry
# were provided by IUCr Journals, http://journals.iucr.org/.
#
# The file may be used within the scientific community so long as
# proper attribution is given to the journal article from which the
# data were obtained.
#
data_2310465
loop_
_publ_author_name
'Puotinen, D.'
'Newnham, R.E.'
_publ_section_title
;
 The crystal structure of Mo Te2
;
_journal_name_full               'Acta Crystallographica (1,1948-23,1967)'
_journal_page_first              691
_journal_page_last               692
_journal_volume                  14
_journal_year                    1961
_chemical_formula_sum            'Mo Te2'
_chemical_name_systematic        'Mo Te2'
_space_group_IT_number           194
_symmetry_space_group_name_Hall  '-P 6c 2c'
_symmetry_space_group_name_H-M   'P 63/m m c'
_cell_angle_alpha                90
_cell_angle_beta                 90
_cell_angle_gamma                120
_cell_formula_units_Z            2
_cell_length_a                   3.519
_cell_length_b                   3.519
_cell_length_c                   13.964
_cell_volume                     149.754
_citation_journal_id_ASTM        ACCRA9
_cod_data_source_file            Puotinen_ACCRA9_1961_1452.cif
_cod_data_source_block           Mo1Te2
_cod_original_cell_volume        149.7542
_cod_original_formula_sum        'Mo1 Te2'
_cod_database_code               2310465
loop_
_symmetry_equiv_pos_as_xyz
x,y,z
x-y,x,z+1/2
-y,x-y,z
-x,-y,z+1/2
-x+y,-x,z
y,-x+y,z+1/2
-y,-x,-z+1/2
x-y,-y,-z
x,x-y,-z+1/2
y,x,-z
-x+y,y,-z+1/2
-x,-x+y,-z
-x,-y,-z
-x+y,-x,-z-1/2
y,-x+y,-z
x,y,-z-1/2
x-y,x,-z
-y,x-y,-z-1/2
y,x,z-1/2
-x+y,y,z
-x,-x+y,z-1/2
-y,-x,z
x-y,-y,z-1/2
x,x-y,z
loop_
_atom_site_label
_atom_site_type_symbol
_atom_site_fract_x
_atom_site_fract_y
_atom_site_fract_z
_atom_site_occupancy
_atom_site_U_iso_or_equiv
Mo1 Mo 0.3333 0.6667 0.25 1 0.0
Te1 Te 0.3333 0.6667 0.625 1 0.0
