#------------------------------------------------------------------------------
#$Date: 2016-04-05 10:50:52 +0300 (Tue, 05 Apr 2016) $
#$Revision: 181515 $
#$URL: svn://www.crystallography.net/cod/cif/2/31/09/2310991.cif $
#------------------------------------------------------------------------------
#
# This file is available in the Crystallography Open Database (COD),
# http://www.crystallography.net/. The original data for this entry
# were provided by IUCr Journals, http://journals.iucr.org/.
#
# The file may be used within the scientific community so long as
# proper attribution is given to the journal article from which the
# data were obtained.
#
data_2310991
loop_
_publ_author_name
'Zachariasen, W. H.'
_publ_section_title
;
 Crystal chemical studies of the 5f-series of elements. X. Sulfides and
 oxy-sulfides
;
_journal_coden_ASTM              ACCRA9
_journal_issue                   5
_journal_name_full               'Acta Crystallographica'
_journal_page_first              291
_journal_page_last               296
_journal_paper_doi               10.1107/s0365110x49000758
_journal_volume                  2
_journal_year                    1949
_chemical_formula_sum            'S3 Th2'
_chemical_name_systematic        'Th2 S3'
_space_group_IT_number           62
_symmetry_space_group_name_Hall  '-P 2c 2ab'
_symmetry_space_group_name_H-M   'P b n m'
_cell_angle_alpha                90
_cell_angle_beta                 90
_cell_angle_gamma                90
_cell_formula_units_Z            4
_cell_length_a                   10.411
_cell_length_b                   10.651
_cell_length_c                   3.888
_cell_volume                     431.131
_cod_data_source_file            Zachariasen_ACCRA9_1949_1776.cif
_cod_data_source_block           S3Th2
_cod_original_cell_volume        431.1309
_cod_original_sg_symbol_Hall     '-P 2ac 2n (z,x,y)'
_cod_database_code               2310991
loop_
_symmetry_equiv_pos_as_xyz
x,y,z
x+1/2,-y+1/2,-z
-x+1/2,y+1/2,-z+1/2
-x,-y,z+1/2
-x,-y,-z
-x-1/2,y-1/2,z
x-1/2,-y-1/2,z-1/2
x,y,-z-1/2
loop_
_atom_site_label
_atom_site_type_symbol
_atom_site_fract_x
_atom_site_fract_y
_atom_site_fract_z
_atom_site_occupancy
_atom_site_U_iso_or_equiv
S3 S 0.206 0.23 0.25 1 0.0
Th1 Th 0.314 -0.022 0.25 1 0.0
S1 S 0.878 0.053 0.25 1 0.0
S2 S 0.561 0.871 0.25 1 0.0
Th2 Th 0.519 0.3 0.25 1 0.0
