#------------------------------------------------------------------------------
#$Date: 2016-02-21 11:56:54 +0200 (Sun, 21 Feb 2016) $
#$Revision: 176809 $
#$URL: svn://www.crystallography.net/cod/cif/2/31/00/2310058.cif $
#------------------------------------------------------------------------------
#
# This file is available in the Crystallography Open Database (COD),
# http://www.crystallography.net/. The original data for this entry
# were provided by IUCr Journals, http://journals.iucr.org/.
#
# The file may be used within the scientific community so long as
# proper attribution is given to the journal article from which the
# data were obtained.
#
data_2310058
loop_
_publ_author_name
'Matsunaga, Toshiyuki'
'Kojima, Rie'
'Yamada, Noboru'
'Kubota, Yoshiki'
'Kifune, Kouichi'
_publ_section_title
;
 Structural transformation of Sb-based high-speed phase-change material
;
_journal_coeditor_code           DK5006
_journal_issue                   6
_journal_name_full               'Acta Crystallographica Section B'
_journal_page_first              559
_journal_page_last               570
_journal_paper_doi               10.1107/S0108768112039961
_journal_volume                  68
_journal_year                    2012
_chemical_formula_sum            'Sb0.89 Te0.11'
_chemical_formula_weight         122.4
_chemical_name_systematic        ' ?'
_space_group_ssg_name            R-3m(00\g)00
_symmetry_cell_setting           trigonal
_cell_angle_alpha                90
_cell_angle_beta                 90
_cell_angle_gamma                120
_cell_formula_units_Z            3
_cell_length_a                   4.29686(13)
_cell_length_b                   4.29686(13)
_cell_length_c                   5.67590(19)
_cell_measurement_temperature    293
_cell_modulation_dimension       1
_cell_volume                     90.754(5)
_diffrn_ambient_temperature      293
_diffrn_radiation_wavelength     0.41873
_exptl_absorpt_coefficient_mu    4.894
_exptl_crystal_density_diffrn    6.7161
_exptl_crystal_F_000             800
_pd_instr_location               ' ?'
_pd_meas_2theta_range_inc        0.01
_pd_meas_2theta_range_max        42.100
_pd_meas_2theta_range_min        5.500
_pd_meas_number_of_points        3661
_pd_proc_2theta_range_inc        0.01
_pd_proc_2theta_range_max        42.1
_pd_proc_2theta_range_min        5.5
_pd_proc_ls_background_function  '36 Legendre polynoms'
_pd_proc_ls_pref_orient_corr     'March & Dollase'
_pd_proc_ls_profile_function     Pseudo-Voigt
_pd_proc_ls_prof_R_factor        0.0205
_pd_proc_ls_prof_wR_expected     0.0297
_pd_proc_ls_prof_wR_factor       0.0297
_refine_diff_density_max         50.38
_refine_diff_density_min         -84.53
_refine_ls_goodness_of_fit_all   1.00
_refine_ls_number_constraints    4
_refine_ls_number_parameters     68
_refine_ls_number_restraints     0
_refine_ls_R_factor_all          0.0162
_refine_ls_R_factor_gt           0.0162
_refine_ls_shift/su_max          5.1125
_refine_ls_shift/su_mean         0.6457
_refine_ls_weighting_scheme      sigma
_refine_ls_wR_factor_all         0.0159
_refine_ls_wR_factor_gt          0.0159
_cod_data_source_file            dk5006.cif
_cod_data_source_block           II
_cod_database_code               2310058
loop_
_space_group_symop_ssg_id
_space_group_symop_ssg_operation_algebraic
1 x1,x2,x3,x4
2 -x2,x1-x2,x3,x4
3 -x1+x2,-x1,x3,x4
4 x2,x1,-x3,-x4
5 x1-x2,-x2,-x3,-x4
6 -x1,-x1+x2,-x3,-x4
7 -x1,-x2,-x3,-x4
8 x2,-x1+x2,-x3,-x4
9 x1-x2,x1,-x3,-x4
10 -x2,-x1,x3,x4
11 -x1+x2,x2,x3,x4
12 x1,x1-x2,x3,x4
13 x1+2/3,x2+1/3,x3+1/3,x4
14 -x2+2/3,x1-x2+1/3,x3+1/3,x4
15 -x1+x2+2/3,-x1+1/3,x3+1/3,x4
16 x2+2/3,x1+1/3,-x3+1/3,-x4
17 x1-x2+2/3,-x2+1/3,-x3+1/3,-x4
18 -x1+2/3,-x1+x2+1/3,-x3+1/3,-x4
19 -x1+2/3,-x2+1/3,-x3+1/3,-x4
20 x2+2/3,-x1+x2+1/3,-x3+1/3,-x4
21 x1-x2+2/3,x1+1/3,-x3+1/3,-x4
22 -x2+2/3,-x1+1/3,x3+1/3,x4
23 -x1+x2+2/3,x2+1/3,x3+1/3,x4
24 x1+2/3,x1-x2+1/3,x3+1/3,x4
25 x1+1/3,x2+2/3,x3+2/3,x4
26 -x2+1/3,x1-x2+2/3,x3+2/3,x4
27 -x1+x2+1/3,-x1+2/3,x3+2/3,x4
28 x2+1/3,x1+2/3,-x3+2/3,-x4
29 x1-x2+1/3,-x2+2/3,-x3+2/3,-x4
30 -x1+1/3,-x1+x2+2/3,-x3+2/3,-x4
31 -x1+1/3,-x2+2/3,-x3+2/3,-x4
32 x2+1/3,-x1+x2+2/3,-x3+2/3,-x4
33 x1-x2+1/3,x1+2/3,-x3+2/3,-x4
34 -x2+1/3,-x1+2/3,x3+2/3,x4
35 -x1+x2+1/3,x2+2/3,x3+2/3,x4
36 x1+1/3,x1-x2+2/3,x3+2/3,x4
loop_
_atom_site_type_symbol
_atom_site_label
_atom_site_fract_x
_atom_site_fract_y
_atom_site_fract_z
_atom_site_U_iso_or_equiv
_atom_site_adp_type
_atom_site_calc_flag
_atom_site_occupancy
_atom_site_symmetry_multiplicity
Sb Sb1 0 0 0 0.0116(3) Uani d 0.887 3
Te Te1 0 0 0 0.0116(3) Uani d 0.113 3
loop_
_atom_site_aniso_label
_atom_site_aniso_U_11
_atom_site_aniso_U_22
_atom_site_aniso_U_33
_atom_site_aniso_U_12
_atom_site_aniso_U_13
_atom_site_aniso_U_23
_atom_site_aniso_type_symbol
Sb1 0.0123(2) 0.0123(2) 0.0101(7) 0.00614(12) 0 0 Sb
Te1 0.0123(2) 0.012285 0.0101(7) 0.006143 0 0 Te
loop_
_atom_site_displace_Fourier_atom_site_label
_atom_site_displace_Fourier_axis
_atom_site_displace_Fourier_wave_vector_seq_id
_atom_site_displace_Fourier_param_cos
_atom_site_displace_Fourier_param_sin
Sb1 x 1 0 0
Sb1 y 1 0 0
Sb1 z 1 0 -0.0394(4)
Sb1 x 2 0 0
Sb1 y 2 0 0
Sb1 z 2 0 0.0031(11)
Sb1 x 3 0 0
Sb1 y 3 0 0
Sb1 z 3 0 0
Sb1 x 4 0 0
Sb1 y 4 0 0
Sb1 z 4 0 0
Te1 x 1 0 0
Te1 y 1 0 0
Te1 z 1 0 -0.272(13)
loop_
_atom_site_Fourier_wave_vector_seq_id
1
2
3
4
loop_
_atom_site_occ_special_func_atom_site_label
_atom_site_occ_special_func_crenel_c
_atom_site_occ_special_func_crenel_w
Sb1 0 0.887
Te1 0.5 0.113
loop_
_atom_type_symbol
_atom_type_scat_dispersion_real
_atom_type_scat_dispersion_imag
_atom_type_scat_source
Sb -2.9029 0.6044 'International Tables Vol C tables 4.2.6.8 and 6.1.1.1'
Te -2.1596 0.6565 'International Tables Vol C tables 4.2.6.8 and 6.1.1.1'
loop_
_cell_wave_vector_seq_id
_cell_wave_vector_x
_cell_wave_vector_y
_cell_wave_vector_z
1 0.000000 0.000000 1.551587
