#------------------------------------------------------------------------------
#$Date: 2016-02-13 21:28:24 +0200 (Sat, 13 Feb 2016) $
#$Revision: 176429 $
#$URL: svn://www.crystallography.net/cod/cif/2/31/09/2310931.cif $
#------------------------------------------------------------------------------
#
# This file is available in the Crystallography Open Database (COD),
# http://www.crystallography.net/. The original data for this entry
# were provided by IUCr Journals, http://journals.iucr.org/.
#
# The file may be used within the scientific community so long as
# proper attribution is given to the journal article from which the
# data were obtained.
#
data_2310931
loop_
_publ_author_name
'Pietrokowsky, P.'
_publ_section_title
;
 The intermediate phase Zr2 Si
;
_journal_name_full               'Acta Crystallographica (1,1948-23,1967)'
_journal_page_first              435
_journal_page_last               438
_journal_volume                  7
_journal_year                    1954
_chemical_formula_sum            'Si Zr2'
_chemical_name_systematic        'Zr2 Si'
_space_group_IT_number           140
_symmetry_space_group_name_Hall  '-I 4 2c'
_symmetry_space_group_name_H-M   'I 4/m c m'
_cell_angle_alpha                90
_cell_angle_beta                 90
_cell_angle_gamma                90
_cell_formula_units_Z            4
_cell_length_a                   6.612
_cell_length_b                   6.612
_cell_length_c                   5.2943
_cell_volume                     231.459
_citation_journal_id_ASTM        ACCRA9
_cod_data_source_file            Pietrokowsky_ACCRA9_1954_213.cif
_cod_data_source_block           Si1Zr2
_cod_original_cell_volume        231.4591
_cod_original_formula_sum        'Si1 Zr2'
_cod_database_code               2310931
loop_
_symmetry_equiv_pos_as_xyz
x,y,z
-y,x,z
-x,-y,z
y,-x,z
x,-y,-z+1/2
y,x,-z+1/2
-x,y,-z+1/2
-y,-x,-z+1/2
-x,-y,-z
y,-x,-z
x,y,-z
-y,x,-z
-x,y,z-1/2
-y,-x,z-1/2
x,-y,z-1/2
y,x,z-1/2
x+1/2,y+1/2,z+1/2
-y+1/2,x+1/2,z+1/2
-x+1/2,-y+1/2,z+1/2
y+1/2,-x+1/2,z+1/2
x+1/2,-y+1/2,-z+1
y+1/2,x+1/2,-z+1
-x+1/2,y+1/2,-z+1
-y+1/2,-x+1/2,-z+1
-x+1/2,-y+1/2,-z+1/2
y+1/2,-x+1/2,-z+1/2
x+1/2,y+1/2,-z+1/2
-y+1/2,x+1/2,-z+1/2
-x+1/2,y+1/2,z
-y+1/2,-x+1/2,z
x+1/2,-y+1/2,z
y+1/2,x+1/2,z
loop_
_atom_site_label
_atom_site_type_symbol
_atom_site_fract_x
_atom_site_fract_y
_atom_site_fract_z
_atom_site_occupancy
_atom_site_U_iso_or_equiv
Zr1 Zr 0.156 0.656 0 1 0.0
Si1 Si 0 0 0.25 1 0.0
