#------------------------------------------------------------------------------
#$Date: 2016-02-13 21:28:24 +0200 (Sat, 13 Feb 2016) $
#$Revision: 176429 $
#$URL: svn://www.crystallography.net/cod/cif/2/31/02/2310298.cif $
#------------------------------------------------------------------------------
#
# This file is available in the Crystallography Open Database (COD),
# http://www.crystallography.net/. The original data for this entry
# were provided by IUCr Journals, http://journals.iucr.org/.
#
# The file may be used within the scientific community so long as
# proper attribution is given to the journal article from which the
# data were obtained.
#
data_2310298
loop_
_publ_author_name
'Kejriwal, P.K.'
'Ryba, E.'
_publ_section_title
;
 Crystal structure of Y Cu2
;
_journal_name_full               'Acta Crystallographica (1,1948-23,1967)'
_journal_page_first              853
_journal_page_last               853
_journal_volume                  16
_journal_year                    1963
_chemical_formula_sum            'Cu2 Y'
_chemical_name_systematic        'Cu2 Y'
_space_group_IT_number           74
_symmetry_space_group_name_Hall  '-I 2b 2'
_symmetry_space_group_name_H-M   'I m m a'
_cell_angle_alpha                90
_cell_angle_beta                 90
_cell_angle_gamma                90
_cell_formula_units_Z            4
_cell_length_a                   4.308
_cell_length_b                   6.891
_cell_length_c                   7.303
_cell_volume                     216.800
_citation_journal_id_ASTM        ACCRA9
_cod_data_source_file            Kejriwal_ACCRA9_1963_1643.cif
_cod_data_source_block           Cu2Y1
_cod_original_cell_volume        216.8
_cod_original_formula_sum        'Cu2 Y1'
_cod_database_code               2310298
loop_
_symmetry_equiv_pos_as_xyz
x,y,z
-x,-y+1/2,z
x,-y,-z
-x,y+1/2,-z
-x,-y,-z
x,y-1/2,-z
-x,y,z
x,-y-1/2,z
x+1/2,y+1/2,z+1/2
-x+1/2,-y+1,z+1/2
x+1/2,-y+1/2,-z+1/2
-x+1/2,y+1,-z+1/2
-x+1/2,-y+1/2,-z+1/2
x+1/2,y,-z+1/2
-x+1/2,y+1/2,z+1/2
x+1/2,-y,z+1/2
loop_
_atom_site_label
_atom_site_type_symbol
_atom_site_fract_x
_atom_site_fract_y
_atom_site_fract_z
_atom_site_occupancy
_atom_site_U_iso_or_equiv
Cu1 Cu 0 0.052 0.162 1 0.0
Y1 Y 0 0.25 0.546 1 0.0
