#------------------------------------------------------------------------------
#$Date: 2015-07-10 22:55:15 +0300 (Fri, 10 Jul 2015) $
#$Revision: 143245 $
#$URL: svn://www.crystallography.net/cod/cif/2/31/02/2310254.cif $
#------------------------------------------------------------------------------
#
# This file is available in the Crystallography Open Database (COD),
# http://www.crystallography.net/. The original data for this entry
# were provided by IUCr Journals, http://journals.iucr.org/.
#
# The file may be used within the scientific community so long as
# proper attribution is given to the journal article from which the
# data were obtained.
#
data_2310254
loop_
_publ_author_name
'Spooner, F.J.'
'Wilson, C.G.'
_publ_section_title
;
 Ordering in binary sigma phases
;
_journal_name_full               'Acta Crystallographica (1,1948-23,1967)'
_journal_page_first              1533
_journal_page_last               1538
_journal_volume                  17
_journal_year                    1964
_chemical_formula_sum            'Ir2 Nb3'
_chemical_name_systematic        'Ir2 Nb3'
_space_group_IT_number           136
_symmetry_space_group_name_Hall  '-P 4n 2n'
_symmetry_space_group_name_H-M   'P 42/m n m'
_cell_angle_alpha                90
_cell_angle_beta                 90
_cell_angle_gamma                90
_cell_formula_units_Z            6
_cell_length_a                   9.86
_cell_length_b                   9.86
_cell_length_c                   5.05
_cell_volume                     490.959
_citation_journal_id_ASTM        ACCRA9
_cod_data_source_file            Spooner_ACCRA9_1964_774.cif
_cod_data_source_block           Ir2Nb3
_cod_database_code               2310254
loop_
_symmetry_equiv_pos_as_xyz
x,y,z
-y+1/2,x+1/2,z+1/2
-x,-y,z
y+1/2,-x+1/2,z+1/2
x+1/2,-y+1/2,-z+1/2
y,x,-z
-x+1/2,y+1/2,-z+1/2
-y,-x,-z
-x,-y,-z
y-1/2,-x-1/2,-z-1/2
x,y,-z
-y-1/2,x-1/2,-z-1/2
-x-1/2,y-1/2,z-1/2
-y,-x,z
x-1/2,-y-1/2,z-1/2
y,x,z
loop_
_atom_site_label
_atom_site_type_symbol
_atom_site_fract_x
_atom_site_fract_y
_atom_site_fract_z
_atom_site_occupancy
_atom_site_U_iso_or_equiv
Nb3 Nb 0.3981 0.3981 0 1 0.0
Ir1 Ir 0 0 0 1 0.0
Nb2 Nb 0.1823 0.1823 0.2524 0.875 0.0
Ir2 Ir 0.7376 0.0653 0 1 0.0
Ir4 Ir 0.1823 0.1823 0.2524 0.125 0.0
Nb1 Nb 0.4632 0.1316 0 0.825 0.0
Ir3 Ir 0.4632 0.1316 0 0.125 0.0
