#------------------------------------------------------------------------------
#$Date: 2016-02-13 21:28:24 +0200 (Sat, 13 Feb 2016) $
#$Revision: 176429 $
#$URL: svn://www.crystallography.net/cod/cif/2/31/02/2310286.cif $
#------------------------------------------------------------------------------
#
# This file is available in the Crystallography Open Database (COD),
# http://www.crystallography.net/. The original data for this entry
# were provided by IUCr Journals, http://journals.iucr.org/.
#
# The file may be used within the scientific community so long as
# proper attribution is given to the journal article from which the
# data were obtained.
#
data_2310286
loop_
_publ_author_name
'Ferro, R.'
_publ_section_title
;
 The crystal structures of Sr Cd, Ba Cd, Sr Hg and Ba Hg
;
_journal_name_full               'Acta Crystallographica (1,1948-23,1967)'
_journal_page_first              781
_journal_page_last               781
_journal_volume                  7
_journal_year                    1954
_chemical_formula_sum            'Cd Sr'
_chemical_name_systematic        'Cd Sr'
_space_group_IT_number           221
_symmetry_space_group_name_Hall  '-P 4 2 3'
_symmetry_space_group_name_H-M   'P m -3 m'
_cell_angle_alpha                90
_cell_angle_beta                 90
_cell_angle_gamma                90
_cell_formula_units_Z            1
_cell_length_a                   4.003
_cell_length_b                   4.003
_cell_length_c                   4.003
_cell_volume                     64.144
_citation_journal_id_ASTM        ACCRA9
_cod_data_source_file            Ferro_ACCRA9_1954_697.cif
_cod_data_source_block           Cd1Sr1
_cod_original_cell_volume        64.1441
_cod_original_formula_sum        'Cd1 Sr1'
_cod_database_code               2310286
loop_
_symmetry_equiv_pos_as_xyz
x,y,z
-y,x,z
-x,-y,z
y,-x,z
x,-y,-z
y,x,-z
-x,y,-z
-y,-x,-z
z,x,y
-x,z,y
-z,-x,y
x,-z,y
z,-x,-y
x,z,-y
-z,x,-y
-x,-z,-y
y,z,x
y,-z,-x
z,y,-x
-y,z,-x
-z,-y,-x
-y,-z,x
z,-y,x
-z,y,x
-x,-y,-z
y,-x,-z
x,y,-z
-y,x,-z
-x,y,z
-y,-x,z
x,-y,z
y,x,z
-z,-x,-y
x,-z,-y
z,x,-y
-x,z,-y
-z,x,y
-x,-z,y
z,-x,y
x,z,y
-y,-z,-x
-y,z,x
-z,-y,x
y,-z,x
z,y,x
y,z,-x
-z,y,-x
z,-y,-x
loop_
_atom_site_label
_atom_site_type_symbol
_atom_site_fract_x
_atom_site_fract_y
_atom_site_fract_z
_atom_site_occupancy
_atom_site_U_iso_or_equiv
Sr1 Sr 0.5 0.5 0.5 1 0.0
Cd1 Cd 0 0 0 1 0.0
