#------------------------------------------------------------------------------
#$Date: 2016-02-13 21:28:24 +0200 (Sat, 13 Feb 2016) $
#$Revision: 176429 $
#$URL: svn://www.crystallography.net/cod/cif/2/31/02/2310283.cif $
#------------------------------------------------------------------------------
#
# This file is available in the Crystallography Open Database (COD),
# http://www.crystallography.net/. The original data for this entry
# were provided by IUCr Journals, http://journals.iucr.org/.
#
# The file may be used within the scientific community so long as
# proper attribution is given to the journal article from which the
# data were obtained.
#
data_2310283
loop_
_publ_author_name
'D'Alte da Veiga, L.M.'
_publ_section_title
;
 Refinement of the structure of the phase Co3 Mo
;
_journal_name_full               'Acta Crystallographica (1,1948-23,1967)'
_journal_page_first              855
_journal_page_last               857
_journal_volume                  18
_journal_year                    1965
_chemical_formula_sum            'Co3 Mo'
_chemical_name_systematic        'Co3 Mo'
_space_group_IT_number           194
_symmetry_space_group_name_Hall  '-P 6c 2c'
_symmetry_space_group_name_H-M   'P 63/m m c'
_cell_angle_alpha                90
_cell_angle_beta                 90
_cell_angle_gamma                120
_cell_formula_units_Z            2
_cell_length_a                   5.1245
_cell_length_b                   5.1245
_cell_length_c                   4.1125
_cell_volume                     93.528
_citation_journal_id_ASTM        ACCRA9
_cod_data_source_file            DAltedaVeiga_ACCRA9_1965_1118.cif
_cod_data_source_block           Co3Mo1
_cod_original_cell_volume        93.52754
_cod_original_formula_sum        'Co3 Mo1'
_cod_database_code               2310283
loop_
_symmetry_equiv_pos_as_xyz
x,y,z
x-y,x,z+1/2
-y,x-y,z
-x,-y,z+1/2
-x+y,-x,z
y,-x+y,z+1/2
-y,-x,-z+1/2
x-y,-y,-z
x,x-y,-z+1/2
y,x,-z
-x+y,y,-z+1/2
-x,-x+y,-z
-x,-y,-z
-x+y,-x,-z-1/2
y,-x+y,-z
x,y,-z-1/2
x-y,x,-z
-y,x-y,-z-1/2
y,x,z-1/2
-x+y,y,z
-x,-x+y,z-1/2
-y,-x,z
x-y,-y,z-1/2
x,x-y,z
loop_
_atom_site_label
_atom_site_type_symbol
_atom_site_fract_x
_atom_site_fract_y
_atom_site_fract_z
_atom_site_occupancy
_atom_site_U_iso_or_equiv
Mo1 Mo 0.3333 0.6667 0.25 1 0.0
Co1 Co 0.8373 0.6746 0.25 1 0.0
