#------------------------------------------------------------------------------
#$Date: 2016-02-13 21:28:24 +0200 (Sat, 13 Feb 2016) $
#$Revision: 176429 $
#$URL: svn://www.crystallography.net/cod/cif/2/31/02/2310241.cif $
#------------------------------------------------------------------------------
#
# This file is available in the Crystallography Open Database (COD),
# http://www.crystallography.net/. The original data for this entry
# were provided by IUCr Journals, http://journals.iucr.org/.
#
# The file may be used within the scientific community so long as
# proper attribution is given to the journal article from which the
# data were obtained.
#
data_2310241
loop_
_publ_author_name
'Ray, A.E.'
_publ_section_title
;
 The crystal structures of Ce Fe7, Pr Fe7, Nd Fe7, and Sm Fe7
;
_journal_name_full               'Acta Crystallographica (1,1948-23,1967)'
_journal_page_first              426
_journal_page_last               430
_journal_volume                  21
_journal_year                    1966
_chemical_formula_sum            'Fe7 Pr'
_chemical_name_systematic        'Fe7 Pr'
_space_group_IT_number           166
_symmetry_space_group_name_Hall  '-R 3 2"'
_symmetry_space_group_name_H-M   'R -3 m :H'
_cell_angle_alpha                90
_cell_angle_beta                 90
_cell_angle_gamma                120
_cell_formula_units_Z            7
_cell_length_a                   8.582
_cell_length_b                   8.582
_cell_length_c                   12.462
_cell_volume                     794.869
_citation_journal_id_ASTM        ACCRA9
_cod_data_source_file            Ray_ACCRA9_1966_28.cif
_cod_data_source_block           Fe7Pr1
_cod_original_cell_volume        794.8687
_cod_original_formula_sum        'Fe7 Pr1'
_cod_database_code               2310241
loop_
_symmetry_equiv_pos_as_xyz
x,y,z
-y,x-y,z
-x+y,-x,z
y,x,-z
-x,-x+y,-z
x-y,-y,-z
-x,-y,-z
y,-x+y,-z
x-y,x,-z
-y,-x,z
x,x-y,z
-x+y,y,z
x+2/3,y+1/3,z+1/3
-y+2/3,x-y+1/3,z+1/3
-x+y+2/3,-x+1/3,z+1/3
y+2/3,x+1/3,-z+1/3
-x+2/3,-x+y+1/3,-z+1/3
x-y+2/3,-y+1/3,-z+1/3
-x+2/3,-y+1/3,-z+1/3
y+2/3,-x+y+1/3,-z+1/3
x-y+2/3,x+1/3,-z+1/3
-y+2/3,-x+1/3,z+1/3
x+2/3,x-y+1/3,z+1/3
-x+y+2/3,y+1/3,z+1/3
x+1/3,y+2/3,z+2/3
-y+1/3,x-y+2/3,z+2/3
-x+y+1/3,-x+2/3,z+2/3
y+1/3,x+2/3,-z+2/3
-x+1/3,-x+y+2/3,-z+2/3
x-y+1/3,-y+2/3,-z+2/3
-x+1/3,-y+2/3,-z+2/3
y+1/3,-x+y+2/3,-z+2/3
x-y+1/3,x+2/3,-z+2/3
-y+1/3,-x+2/3,z+2/3
x+1/3,x-y+2/3,z+2/3
-x+y+1/3,y+2/3,z+2/3
loop_
_atom_site_label
_atom_site_type_symbol
_atom_site_fract_x
_atom_site_fract_y
_atom_site_fract_z
_atom_site_occupancy
_atom_site_U_iso_or_equiv
Fe2 Fe 0.5 0 0.5 1 0.0
Pr2 Pr 0 0 0.34 1 0.0
Fe1 Fe 0 0 0.103 0.67 0.0
Fe3 Fe 0.297 0 0 1 0.0
Fe4 Fe 0.164 0.836 0.494 1 0.0
Pr1 Pr 0 0 0 0.33 0.0
