#------------------------------------------------------------------------------
#$Date: 2015-10-12 21:12:05 +0300 (Mon, 12 Oct 2015) $
#$Revision: 166710 $
#$URL: svn://www.crystallography.net/cod/cif/2/31/09/2310913.cif $
#------------------------------------------------------------------------------
#
# This file is available in the Crystallography Open Database (COD),
# http://www.crystallography.net/. The original data for this entry
# were provided by IUCr Journals, http://journals.iucr.org/.
#
# The file may be used within the scientific community so long as
# proper attribution is given to the journal article from which the
# data were obtained.
#
data_2310913
loop_
_publ_author_name
'Hohnke, D.'
'Parthe, E.'
_publ_section_title
;
 The anti-Th3P4 structure type for rare earth germanides, antimonides and
 bismuthides
;
_journal_name_full               'Acta Crystallographica (1,1948-23,1967)'
_journal_page_first              435
_journal_page_last               437
_journal_volume                  21
_journal_year                    1966
_chemical_formula_sum            'Ho4 Sb3'
_chemical_name_systematic        'Ho4 Sb3'
_space_group_IT_number           220
_symmetry_space_group_name_Hall  'I -4bd 2c 3'
_symmetry_space_group_name_H-M   'I -4 3 d'
_cell_angle_alpha                90
_cell_angle_beta                 90
_cell_angle_gamma                90
_cell_formula_units_Z            4
_cell_length_a                   9.072
_cell_length_b                   9.072
_cell_length_c                   9.072
_cell_volume                     746.636
_citation_journal_id_ASTM        ACCRA9
_cod_data_source_file            Hohnke_ACCRA9_1966_209.cif
_cod_data_source_block           Ho4Sb3
_cod_original_cell_volume        746.6362
_cod_database_code               2310913
loop_
_symmetry_equiv_pos_as_xyz
x,y,z
y+1/4,-x+3/4,-z+1/4
-x,-y+1/2,z
-y+3/4,x+3/4,-z+1/4
x,-y,-z+1/2
-y+1/4,-x+3/4,z+3/4
-x,y+1/2,-z+1/2
y+3/4,x+3/4,z+3/4
z,x,y
x+1/4,-z+3/4,-y+1/4
-z,-x+1/2,y
-x+3/4,z+3/4,-y+1/4
z,-x,-y+1/2
-x+1/4,-z+3/4,y+3/4
-z,x+1/2,-y+1/2
x+3/4,z+3/4,y+3/4
y,z,x
y,-z,-x+1/2
-z+1/4,-y+3/4,x+3/4
-y,z+1/2,-x+1/2
z+1/4,y+1/4,x+1/4
-y+1/2,-z,x+1/2
-z+1/4,y+1/4,-x+3/4
z+3/4,-y+1/4,-x+3/4
x+1/2,y+1/2,z+1/2
y+3/4,-x+5/4,-z+3/4
-x+1/2,-y+1,z+1/2
-y+5/4,x+5/4,-z+3/4
x+1/2,-y+1/2,-z+1
-y+3/4,-x+5/4,z+5/4
-x+1/2,y+1,-z+1
y+5/4,x+5/4,z+5/4
z+1/2,x+1/2,y+1/2
x+3/4,-z+5/4,-y+3/4
-z+1/2,-x+1,y+1/2
-x+5/4,z+5/4,-y+3/4
z+1/2,-x+1/2,-y+1
-x+3/4,-z+5/4,y+5/4
-z+1/2,x+1,-y+1
x+5/4,z+5/4,y+5/4
y+1/2,z+1/2,x+1/2
y+1/2,-z+1/2,-x+1
-z+3/4,-y+5/4,x+5/4
-y+1/2,z+1,-x+1
z+3/4,y+3/4,x+3/4
-y+1,-z+1/2,x+1
-z+3/4,y+3/4,-x+5/4
z+5/4,-y+3/4,-x+5/4
loop_
_atom_site_label
_atom_site_type_symbol
_atom_site_fract_x
_atom_site_fract_y
_atom_site_fract_z
_atom_site_occupancy
_atom_site_U_iso_or_equiv
Ho1 Ho 0.074 0.074 0.074 1 0.0
Sb1 Sb 0.375 0 0.25 1 0.0
