#------------------------------------------------------------------------------
#$Date: 2015-07-11 16:32:28 +0300 (Sat, 11 Jul 2015) $
#$Revision: 144939 $
#$URL: svn://www.crystallography.net/cod/cif/2/31/02/2310281.cif $
#------------------------------------------------------------------------------
#
# This file is available in the Crystallography Open Database (COD),
# http://www.crystallography.net/. The original data for this entry
# were provided by IUCr Journals, http://journals.iucr.org/.
#
# The file may be used within the scientific community so long as
# proper attribution is given to the journal article from which the
# data were obtained.
#
data_2310281
loop_
_publ_author_name
'Cromer, D.T.'
'Larson, A.C.'
_publ_section_title
;
 The crystal structure of Ce7 Ni2
;
_journal_name_full               'Acta Crystallographica (1,1948-23,1967)'
_journal_page_first              855
_journal_page_last               859
_journal_volume                  12
_journal_year                    1959
_chemical_formula_sum            'Ce2 Ni7'
_chemical_name_systematic        'Ce2 Ni7'
_space_group_IT_number           194
_symmetry_space_group_name_Hall  '-P 6c 2c'
_symmetry_space_group_name_H-M   'P 63/m m c'
_cell_angle_alpha                90
_cell_angle_beta                 90
_cell_angle_gamma                120
_cell_formula_units_Z            4
_cell_length_a                   4.98
_cell_length_b                   4.98
_cell_length_c                   24.52
_cell_volume                     526.635
_citation_journal_id_ASTM        ACCRA9
_cod_data_source_file            Cromer_ACCRA9_1959_846.cif
_cod_data_source_block           Ce2Ni7
_cod_original_cell_volume        526.6351
_cod_database_code               2310281
loop_
_symmetry_equiv_pos_as_xyz
x,y,z
x-y,x,z+1/2
-y,x-y,z
-x,-y,z+1/2
-x+y,-x,z
y,-x+y,z+1/2
-y,-x,-z+1/2
x-y,-y,-z
x,x-y,-z+1/2
y,x,-z
-x+y,y,-z+1/2
-x,-x+y,-z
-x,-y,-z
-x+y,-x,-z-1/2
y,-x+y,-z
x,y,-z-1/2
x-y,x,-z
-y,x-y,-z-1/2
y,x,z-1/2
-x+y,y,z
-x,-x+y,z-1/2
-y,-x,z
x-y,-y,z-1/2
x,x-y,z
loop_
_atom_site_label
_atom_site_type_symbol
_atom_site_fract_x
_atom_site_fract_y
_atom_site_fract_z
_atom_site_occupancy
_atom_site_U_iso_or_equiv
Ce1 Ce 0.3333 0.6667 0.1747 1 0.0
Ni5 Ni 0.8338 0.6676 0.0854 1 0.0
Ni2 Ni 0 0 0.167 1 0.0
Ni3 Ni 0.3333 0.6667 0.8334 1 0.0
Ni4 Ni 0.8351 0.6702 0.25 1 0.0
Ce2 Ce 0.3333 0.6667 0.0302 1 0.0
Ni1 Ni 0 0 0 1 0.0
