#------------------------------------------------------------------------------
#$Date: 2016-03-22 11:13:47 +0200 (Tue, 22 Mar 2016) $
#$Revision: 178890 $
#$URL: svn://www.crystallography.net/cod/cif/4/11/19/4111969.cif $
#------------------------------------------------------------------------------
#
# This file is available in the Crystallography Open Database (COD),
# http://www.crystallography.net/
#
# All data on this site have been placed in the public domain by the
# contributors.
#
data_4111969
loop_
_publ_author_name
'H. Gijs Schimmel'
'Jacques Huot'
'Laurent C. Chapon'
'Frans D. Tichelaar'
'Fokko M. Mulder'
_publ_section_title
;
 Hydrogen Cycling of Niobium and Vanadium Catalyzed Nanostructured
 Magnesium
;
_journal_name_full               'Journal of the American Chemical Society'
_journal_page_first              14348
_journal_page_last               14354
_journal_paper_doi               10.1021/ja051508a
_journal_volume                  127
_journal_year                    2005
_chemical_formula_sum            Nb
_chemical_formula_weight         92.91
_space_group_IT_number           229
_symmetry_cell_setting           cubic
_symmetry_space_group_name_Hall  '-I 4 2 3'
_symmetry_space_group_name_H-M   'I m -3 m'
_audit_author_name               'H.G. Schimmel'
_audit_creation_date             2005-02-09T15:48
_audit_creation_method           'from EXP file using GSAS2CIF'
_audit_update_record
' 2005-02-09T15:48  Initial CIF as created by GSAS2CIF'
_cell_angle_alpha                90.0
_cell_angle_beta                 90.0
_cell_angle_gamma                90.0
_cell_formula_units_Z            2
_cell_length_a                   3.3279
_cell_length_b                   3.3279
_cell_length_c                   3.3279
_cell_volume                     36.856
_pd_block_id                     2005-02-09T15:48|NB|H.G._Schimmel|Overall
_pd_phase_name                   Nb
_cod_data_source_file            ja051508asi20050309_060956.cif
_cod_data_source_block           NB_publ
_cod_original_cell_volume        36.85576
_cod_database_code               4111969
loop_
_symmetry_equiv_pos_site_id
_symmetry_equiv_pos_as_xyz
1 +x,+y,+z
2 +z,+x,+y
3 +y,+z,+x
4 +x,+y,-z
5 -z,+x,+y
6 +y,-z,+x
7 -z,+x,-y
8 -y,-z,+x
9 +y,-z,-x
10 -x,+y,-z
11 -z,-x,+y
12 +x,-y,-z
13 +y,+x,+z
14 +z,+y,+x
15 +x,+z,+y
16 +y,+x,-z
17 -z,+y,+x
18 +x,-z,+y
19 -z,+y,-x
20 -x,-z,+y
21 +x,-z,-y
22 -y,+x,-z
23 -z,-y,+x
24 +y,-x,-z
-1 -x,-y,-z
-2 -z,-x,-y
-3 -y,-z,-x
-4 -x,-y,+z
-5 +z,-x,-y
-6 -y,+z,-x
-7 +z,-x,+y
-8 +y,+z,-x
-9 -y,+z,+x
-10 +x,-y,+z
-11 +z,+x,-y
-12 -x,+y,+z
-13 -y,-x,-z
-14 -z,-y,-x
-15 -x,-z,-y
-16 -y,-x,+z
-17 +z,-y,-x
-18 -x,+z,-y
-19 +z,-y,+x
-20 +x,+z,-y
-21 -x,+z,+y
-22 +y,-x,+z
-23 +z,+y,-x
-24 -y,+x,+z
101 +x+1/2,+y+1/2,+z+1/2
102 +z+1/2,+x+1/2,+y+1/2
103 +y+1/2,+z+1/2,+x+1/2
104 +x+1/2,+y+1/2,-z+1/2
105 -z+1/2,+x+1/2,+y+1/2
106 +y+1/2,-z+1/2,+x+1/2
107 -z+1/2,+x+1/2,-y+1/2
108 -y+1/2,-z+1/2,+x+1/2
109 +y+1/2,-z+1/2,-x+1/2
110 -x+1/2,+y+1/2,-z+1/2
111 -z+1/2,-x+1/2,+y+1/2
112 +x+1/2,-y+1/2,-z+1/2
113 +y+1/2,+x+1/2,+z+1/2
114 +z+1/2,+y+1/2,+x+1/2
115 +x+1/2,+z+1/2,+y+1/2
116 +y+1/2,+x+1/2,-z+1/2
117 -z+1/2,+y+1/2,+x+1/2
118 +x+1/2,-z+1/2,+y+1/2
119 -z+1/2,+y+1/2,-x+1/2
120 -x+1/2,-z+1/2,+y+1/2
121 +x+1/2,-z+1/2,-y+1/2
122 -y+1/2,+x+1/2,-z+1/2
123 -z+1/2,-y+1/2,+x+1/2
124 +y+1/2,-x+1/2,-z+1/2
-101 -x+1/2,-y+1/2,-z+1/2
-102 -z+1/2,-x+1/2,-y+1/2
-103 -y+1/2,-z+1/2,-x+1/2
-104 -x+1/2,-y+1/2,+z+1/2
-105 +z+1/2,-x+1/2,-y+1/2
-106 -y+1/2,+z+1/2,-x+1/2
-107 +z+1/2,-x+1/2,+y+1/2
-108 +y+1/2,+z+1/2,-x+1/2
-109 -y+1/2,+z+1/2,+x+1/2
-110 +x+1/2,-y+1/2,+z+1/2
-111 +z+1/2,+x+1/2,-y+1/2
-112 -x+1/2,+y+1/2,+z+1/2
-113 -y+1/2,-x+1/2,-z+1/2
-114 -z+1/2,-y+1/2,-x+1/2
-115 -x+1/2,-z+1/2,-y+1/2
-116 -y+1/2,-x+1/2,+z+1/2
-117 +z+1/2,-y+1/2,-x+1/2
-118 -x+1/2,+z+1/2,-y+1/2
-119 +z+1/2,-y+1/2,+x+1/2
-120 +x+1/2,+z+1/2,-y+1/2
-121 -x+1/2,+z+1/2,+y+1/2
-122 +y+1/2,-x+1/2,+z+1/2
-123 +z+1/2,+y+1/2,-x+1/2
-124 -y+1/2,+x+1/2,+z+1/2
loop_
_atom_site_type_symbol
_atom_site_label
_atom_site_fract_x
_atom_site_fract_y
_atom_site_fract_z
_atom_site_occupancy
_atom_site_thermal_displace_type
_atom_site_U_iso_or_equiv
_atom_site_symmetry_multiplicity
NB Nb 0.0 0.0 0.0 1.0 Uiso 0.01095 2
loop_
_atom_type_symbol
_atom_type_number_in_cell
NB 2.0
loop_
_geom_angle_atom_site_label_1
_geom_angle_atom_site_label_2
_geom_angle_atom_site_label_3
_geom_angle
_geom_angle_site_symmetry_1
_geom_angle_site_symmetry_3
_geom_angle_publ_flag
Nb Nb Nb 70.529(23) 101_444 101_445 n
Nb Nb Nb 70.529(11) 101_444 101_454 n
Nb Nb Nb 109.471(11) 101_444 101_455 n
Nb Nb Nb 70.529(11) 101_444 101_544 n
Nb Nb Nb 109.471(11) 101_444 101_545 n
Nb Nb Nb 109.471(23) 101_444 101_554 n
Nb Nb Nb 180.0 101_444 101_555 n
Nb Nb Nb 109.471(11) 101_445 101_454 n
Nb Nb Nb 70.529(11) 101_445 101_455 n
Nb Nb Nb 109.471(11) 101_445 101_544 n
Nb Nb Nb 70.529(11) 101_445 101_545 n
Nb Nb Nb 180.0 101_445 101_554 n
Nb Nb Nb 109.471(23) 101_445 101_555 n
Nb Nb Nb 70.529(23) 101_454 101_455 n
Nb Nb Nb 109.471(23) 101_454 101_544 n
Nb Nb Nb 180.0 101_454 101_545 n
Nb Nb Nb 70.529(11) 101_454 101_554 n
Nb Nb Nb 109.471(11) 101_454 101_555 n
Nb Nb Nb 180.0 101_455 101_544 n
Nb Nb Nb 109.471(23) 101_455 101_545 n
Nb Nb Nb 109.471(11) 101_455 101_554 n
Nb Nb Nb 70.529(11) 101_455 101_555 n
Nb Nb Nb 70.529(23) 101_544 101_545 n
Nb Nb Nb 70.529(11) 101_544 101_554 n
Nb Nb Nb 109.471(11) 101_544 101_555 n
Nb Nb Nb 109.471(11) 101_545 101_554 n
Nb Nb Nb 70.529(11) 101_545 101_555 n
Nb Nb Nb 70.529(23) 101_554 101_555 n
loop_
_geom_bond_atom_site_label_1
_geom_bond_atom_site_label_2
_geom_bond_distance
_geom_bond_site_symmetry_2
_geom_bond_publ_flag
Nb Nb 3.3279(10) 1_455 n
Nb Nb 3.3279(10) 1_545 n
Nb Nb 3.3279(10) 1_554 n
Nb Nb 3.3279(10) 1_556 n
Nb Nb 3.3279(10) 1_565 n
Nb Nb 3.3279(10) 1_655 n
Nb Nb 2.8820(6) 101_444 n
Nb Nb 2.8820(6) 101_445 n
Nb Nb 2.8820(6) 101_454 n
Nb Nb 2.8820(6) 101_455 n
Nb Nb 2.8820(6) 101_544 n
Nb Nb 2.8820(6) 101_545 n
Nb Nb 2.8820(6) 101_554 n
Nb Nb 2.8820(6) 101_555 n
