#------------------------------------------------------------------------------
#$Date: 2017-10-06 19:24:22 +0300 (Fri, 06 Oct 2017) $
#$Revision: 201816 $
#$URL: file:///home/coder/svn-repositories/cod/cif/9/01/40/9014032.cif $
#------------------------------------------------------------------------------
#
# This file is available in the Crystallography Open Database (COD),
# http://www.crystallography.net/. The original data for this entry
# were provided the American Mineralogist Crystal Structure Database,
# http://rruff.geo.arizona.edu/AMS/amcsd.php
#
# The file may be used within the scientific community so long as
# proper attribution is given to the journal article from which the
# data were obtained.
#
data_9014032
loop_
_publ_author_name
'Furuseth, S.'
'Selte, K.'
'Kjekshus, A.'
_publ_section_title
;
 Redetermined crystal structures of PdAs2, PdSb2,
 PtP2, PtAs2, PtSb2, alpha-PtBi2, and AuSb2
;
_journal_name_full               'Acta Chemica Scandinavica'
_journal_page_first              735
_journal_page_last               741
_journal_paper_doi               10.3891/acta.chem.scand.19-0735
_journal_volume                  19
_journal_year                    1965
_chemical_compound_source        Synthetic
_chemical_formula_sum            'Bi2 Pt'
_chemical_name_mineral           Insizwaite
_space_group_IT_number           205
_symmetry_space_group_name_Hall  '-P 2ac 2ab 3'
_symmetry_space_group_name_H-M   'P a -3'
_cell_angle_alpha                90
_cell_angle_beta                 90
_cell_angle_gamma                90
_cell_length_a                   6.7022
_cell_length_b                   6.7022
_cell_length_c                   6.7022
_cell_volume                     301.059
_database_code_amcsd             0017788
_exptl_crystal_density_diffrn    13.525
_cod_original_sg_symbol_H-M      'P a 3'
_cod_original_formula_sum        'Pt Bi2'
_cod_database_code               9014032
loop_
_space_group_symop_operation_xyz
x,y,z
1/2+z,x,1/2-y
z,1/2-x,1/2+y
1/2-z,1/2+x,y
-z,-x,-y
1/2+y,1/2-z,-x
1/2-y,-z,1/2+x
-y,1/2+z,1/2-x
y,z,x
x,1/2-y,1/2+z
1/2-x,1/2+y,z
1/2+x,y,1/2-z
-x,-y,-z
1/2-z,-x,1/2+y
-z,1/2+x,1/2-y
1/2+z,1/2-x,-y
z,x,y
1/2-y,1/2+z,x
1/2+y,z,1/2-x
y,1/2-z,1/2+x
-y,-z,-x
-x,1/2+y,1/2-z
1/2+x,1/2-y,-z
1/2-x,-y,1/2+z
loop_
_atom_site_label
_atom_site_fract_x
_atom_site_fract_y
_atom_site_fract_z
Pt 0.00000 0.00000 0.00000
Bi 0.37100 0.37100 0.37100
loop_
_cod_related_entry_id
_cod_related_entry_database
_cod_related_entry_code
1 AMCSD 0017788
