#------------------------------------------------------------------------------
#$Date: 2017-10-06 19:24:22 +0300 (Fri, 06 Oct 2017) $
#$Revision: 201816 $
#$URL: file:///home/coder/svn-repositories/cod/cif/9/01/46/9014640.cif $
#------------------------------------------------------------------------------
#
# This file is available in the Crystallography Open Database (COD),
# http://www.crystallography.net/. The original data for this entry
# were provided the American Mineralogist Crystal Structure Database,
# http://rruff.geo.arizona.edu/AMS/amcsd.php
#
# The file may be used within the scientific community so long as
# proper attribution is given to the journal article from which the
# data were obtained.
#
data_9014640
loop_
_publ_author_name
'Phragmen, G.'
_publ_section_title
;
 Om jarn-kisellegeringarnas byggnad
;
_journal_name_full               'Jernkontorets Annaler'
_journal_page_first              121
_journal_page_last               131
_journal_volume                  107
_journal_year                    1923
_chemical_compound_source        Synthetic
_chemical_formula_sum            'Fe Si2'
_chemical_name_mineral           Linzhiite
_space_group_IT_number           123
_symmetry_space_group_name_Hall  '-P 4 2'
_symmetry_space_group_name_H-M   'P 4/m m m'
_cell_angle_alpha                90
_cell_angle_beta                 90
_cell_angle_gamma                90
_cell_length_a                   2.69
_cell_length_b                   2.69
_cell_length_c                   5.08
_cell_volume                     36.759
_database_code_amcsd             0019018
_exptl_crystal_density_diffrn    5.060
_cod_database_code               9014640
loop_
_space_group_symop_operation_xyz
x,y,z
-y,-x,z
y,x,-z
y,-x,-z
-y,x,z
x,-y,z
-x,y,-z
x,y,-z
-x,-y,z
y,x,z
-y,-x,-z
-y,x,-z
y,-x,z
-x,y,z
x,-y,-z
-x,-y,-z
loop_
_atom_site_label
_atom_site_fract_x
_atom_site_fract_y
_atom_site_fract_z
Fe 0.00000 0.00000 0.00000
Si 0.50000 0.50000 0.25000
loop_
_cod_related_entry_id
_cod_related_entry_database
_cod_related_entry_code
1 AMCSD 0019018
