#------------------------------------------------------------------------------
#$Date: 2016-02-09 20:42:54 +0200 (Tue, 09 Feb 2016) $
#$Revision: 176292 $
#$URL: svn://www.crystallography.net/cod/cif/6/00/05/6000521.cif $
#------------------------------------------------------------------------------
#
# This file is available in the Crystallography Open Database (COD),
# http://www.crystallography.net/
#
# All data on this site have been placed in the public domain by the
# contributors.
#
data_6000521
loop_
_publ_author_name
'Cockcroft, J. K.'
'Fitch, A. N.'
_publ_section_title
;
 The solid-phases of deuterium sulfide by powder neutron-diffraction
;
_journal_coden_ASTM              ZEKRDZ
_journal_issue                   1-4
_journal_name_full               'Zeitschrift f\"ur Kristallographie'
_journal_page_first              1
_journal_page_last               19
_journal_paper_doi               10.1524/zkri.1990.193.14.1
_journal_volume                  193
_journal_year                    1990
_chemical_formula_sum            'D2 S'
_space_group_name_H-M_alt        'P b c m'
_cell_angle_alpha                90.000
_cell_angle_beta                 90.000
_cell_angle_gamma                90.000
_cell_length_a                   4.0760
_cell_length_b                   13.3801
_cell_length_c                   6.7215
_cell_volume                     366.57
_diffrn_ambient_temperature      1.5
_cod_database_code               6000521
loop_
_atom_site_label
_atom_site_fract_x
_atom_site_fract_y
_atom_site_fract_z
? ? ? ?
