#------------------------------------------------------------------------------
#$Date: 2016-02-13 21:28:24 +0200 (Sat, 13 Feb 2016) $
#$Revision: 176429 $
#$URL: svn://www.crystallography.net/cod/cif/1/51/02/1510253.cif $
#------------------------------------------------------------------------------
#
# This file is available in the Crystallography Open Database (COD),
# http://www.crystallography.net/
#
# All data on this site have been placed in the public domain by the
# contributors.
#
data_1510253
loop_
_publ_author_name
'Ramakrishnan, S.'
'Saxena, M. C.'
'Chandra, G.'
_publ_section_title
;
 Effect of Cr and Fe impurities on superconducting A-15 Nb~76~Au~24~ and
 Ti~75~Sb~25~
;
_journal_issue                   2
_journal_name_full               'Physica B+C'
_journal_page_first              185
_journal_page_last               190
_journal_paper_doi               10.1016/0378-4363(86)90271-8
_journal_volume                  141
_journal_year                    1986
_chemical_formula_sum            'Au Nb3'
_chemical_name_systematic        'Au Nb3'
_space_group_IT_number           223
_symmetry_space_group_name_Hall  '-P 4n 2 3'
_symmetry_space_group_name_H-M   'P m -3 n'
_cell_angle_alpha                90
_cell_angle_beta                 90
_cell_angle_gamma                90
_cell_formula_units_Z            2
_cell_length_a                   5.215
_cell_length_b                   5.215
_cell_length_c                   5.215
_cell_volume                     141.828
_citation_journal_id_ASTM        PHBCDQ
_cod_data_source_file            gold_315.cif
_cod_data_source_block           Au1Nb3
_cod_original_cell_volume        141.8283
_cod_original_formula_sum        'Au1 Nb3'
_cod_database_code               1510253
loop_
_symmetry_equiv_pos_as_xyz
x,y,z
-y+1/2,x+1/2,z+1/2
-x,-y,z
y+1/2,-x+1/2,z+1/2
x,-y,-z
y+1/2,x+1/2,-z+1/2
-x,y,-z
-y+1/2,-x+1/2,-z+1/2
z,x,y
-x+1/2,z+1/2,y+1/2
-z,-x,y
x+1/2,-z+1/2,y+1/2
z,-x,-y
x+1/2,z+1/2,-y+1/2
-z,x,-y
-x+1/2,-z+1/2,-y+1/2
y,z,x
y,-z,-x
z+1/2,y+1/2,-x+1/2
-y,z,-x
-z+1/2,-y+1/2,-x+1/2
-y,-z,x
z+1/2,-y+1/2,x+1/2
-z+1/2,y+1/2,x+1/2
-x,-y,-z
y-1/2,-x-1/2,-z-1/2
x,y,-z
-y-1/2,x-1/2,-z-1/2
-x,y,z
-y-1/2,-x-1/2,z-1/2
x,-y,z
y-1/2,x-1/2,z-1/2
-z,-x,-y
x-1/2,-z-1/2,-y-1/2
z,x,-y
-x-1/2,z-1/2,-y-1/2
-z,x,y
-x-1/2,-z-1/2,y-1/2
z,-x,y
x-1/2,z-1/2,y-1/2
-y,-z,-x
-y,z,x
-z-1/2,-y-1/2,x-1/2
y,-z,x
z-1/2,y-1/2,x-1/2
y,z,-x
-z-1/2,y-1/2,-x-1/2
z-1/2,-y-1/2,-x-1/2
loop_
_atom_site_label
_atom_site_type_symbol
_atom_site_fract_x
_atom_site_fract_y
_atom_site_fract_z
_atom_site_occupancy
_atom_site_U_iso_or_equiv
Au1 Au 0 0 0 1 0.0
Nb1 Nb 0.25 0 0.5 1 0.0
