#------------------------------------------------------------------------------
#$Date: 2016-02-14 16:26:36 +0200 (Sun, 14 Feb 2016) $
#$Revision: 176435 $
#$URL: svn://www.crystallography.net/cod/cif/1/51/08/1510854.cif $
#------------------------------------------------------------------------------
#
# This file is available in the Crystallography Open Database (COD),
# http://www.crystallography.net/
#
# All data on this site have been placed in the public domain by the
# contributors.
#
data_1510854
loop_
_publ_author_name
'Grishina, L.P.'
'Telyukova, T.M.'
'Manelis, R.M.'
_publ_section_title
;
 Structure and properties of yttrium diboride
;
_journal_name_full
'Izvestiya Akademii Nauk SSSR, Neorganicheskie Materialy'
_journal_page_first              1035
_journal_page_last               1036
_journal_volume                  6
_journal_year                    1970
_chemical_formula_sum            'B2 Y'
_chemical_name_systematic        'Y B2'
_space_group_IT_number           191
_symmetry_space_group_name_Hall  '-P 6 2'
_symmetry_space_group_name_H-M   'P 6/m m m'
_cell_angle_alpha                90
_cell_angle_beta                 90
_cell_angle_gamma                120
_cell_formula_units_Z            1
_cell_length_a                   3.29
_cell_length_b                   3.29
_cell_length_c                   3.835
_cell_volume                     35.949
_citation_journal_id_ASTM        IVNMAW
_cod_data_source_file            boron_362.cif
_cod_data_source_block           B2Y1
_cod_original_cell_volume        35.94908
_cod_original_formula_sum        'B2 Y1'
_cod_database_code               1510854
loop_
_symmetry_equiv_pos_as_xyz
x,y,z
x-y,x,z
-y,x-y,z
-x,-y,z
-x+y,-x,z
y,-x+y,z
-y,-x,-z
x-y,-y,-z
x,x-y,-z
y,x,-z
-x+y,y,-z
-x,-x+y,-z
-x,-y,-z
-x+y,-x,-z
y,-x+y,-z
x,y,-z
x-y,x,-z
-y,x-y,-z
y,x,z
-x+y,y,z
-x,-x+y,z
-y,-x,z
x-y,-y,z
x,x-y,z
loop_
_atom_site_label
_atom_site_type_symbol
_atom_site_fract_x
_atom_site_fract_y
_atom_site_fract_z
_atom_site_occupancy
_atom_site_U_iso_or_equiv
Y1 Y 0 0 0 1 0.0
B1 B 0.3333 0.6667 0.5 1 0.0
