#------------------------------------------------------------------------------
#$Date: 2016-02-14 16:26:36 +0200 (Sun, 14 Feb 2016) $
#$Revision: 176435 $
#$URL: svn://www.crystallography.net/cod/cif/1/51/04/1510475.cif $
#------------------------------------------------------------------------------
#
# This file is available in the Crystallography Open Database (COD),
# http://www.crystallography.net/
#
# All data on this site have been placed in the public domain by the
# contributors.
#
data_1510475
loop_
_publ_author_name
'Cirafici, S.'
'Palenzona, A.'
_publ_section_title
;
 The phase diagram of the U - Au system
;
_journal_name_full               'Journal of the Less-Common Metals'
_journal_page_first              167
_journal_page_last               171
_journal_paper_doi               10.1016/0022-5088(88)90041-0
_journal_volume                  143
_journal_year                    1988
_chemical_formula_sum            'Au2 U'
_chemical_name_systematic        'Au2 U'
_space_group_IT_number           191
_symmetry_space_group_name_Hall  '-P 6 2'
_symmetry_space_group_name_H-M   'P 6/m m m'
_cell_angle_alpha                90
_cell_angle_beta                 90
_cell_angle_gamma                120
_cell_formula_units_Z            1
_cell_length_a                   4.756
_cell_length_b                   4.756
_cell_length_c                   3.11
_cell_volume                     60.922
_citation_journal_id_ASTM        JCOMAH
_cod_data_source_file            gold_571.cif
_cod_data_source_block           Au2U1
_cod_original_cell_volume        60.92208
_cod_original_formula_sum        'Au2 U1'
_cod_database_code               1510475
loop_
_symmetry_equiv_pos_as_xyz
x,y,z
x-y,x,z
-y,x-y,z
-x,-y,z
-x+y,-x,z
y,-x+y,z
-y,-x,-z
x-y,-y,-z
x,x-y,-z
y,x,-z
-x+y,y,-z
-x,-x+y,-z
-x,-y,-z
-x+y,-x,-z
y,-x+y,-z
x,y,-z
x-y,x,-z
-y,x-y,-z
y,x,z
-x+y,y,z
-x,-x+y,z
-y,-x,z
x-y,-y,z
x,x-y,z
loop_
_atom_site_label
_atom_site_type_symbol
_atom_site_fract_x
_atom_site_fract_y
_atom_site_fract_z
_atom_site_occupancy
_atom_site_U_iso_or_equiv
Au1 Au 0.3333 0.6667 0.5 1 0.0
U1 U 0 0 0 1 0.0
