#------------------------------------------------------------------------------
#$Date: 2016-02-18 17:37:37 +0200 (Thu, 18 Feb 2016) $
#$Revision: 176729 $
#$URL: svn://www.crystallography.net/cod/cif/1/51/00/1510043.cif $
#------------------------------------------------------------------------------
#
# This file is available in the Crystallography Open Database (COD),
# http://www.crystallography.net/
#
# All data on this site have been placed in the public domain by the
# contributors.
#
data_1510043
loop_
_publ_author_name
'Palenzona, A.'
_publ_section_title
;
 The ytterbium-silver system
;
_journal_name_full               'Journal of the Less-Common Metals'
_journal_page_first              443
_journal_page_last               446
_journal_paper_doi               10.1016/0022-5088(70)90049-4
_journal_volume                  21
_journal_year                    1970
_chemical_formula_sum            'Ag3 Yb5'
_chemical_name_systematic        'Ag3 Yb5'
_space_group_IT_number           140
_symmetry_space_group_name_Hall  '-I 4 2c'
_symmetry_space_group_name_H-M   'I 4/m c m'
_cell_angle_alpha                90
_cell_angle_beta                 90
_cell_angle_gamma                90
_cell_formula_units_Z            4
_cell_length_a                   7.942
_cell_length_b                   7.942
_cell_length_c                   14.881
_cell_volume                     938.624
_citation_journal_id_ASTM        JCOMAH
_cod_data_source_file            silver3-x_88.cif
_cod_data_source_block           Ag3Yb5
_cod_original_cell_volume        938.6245
_cod_database_code               1510043
loop_
_symmetry_equiv_pos_as_xyz
x,y,z
-y,x,z
-x,-y,z
y,-x,z
x,-y,-z+1/2
y,x,-z+1/2
-x,y,-z+1/2
-y,-x,-z+1/2
-x,-y,-z
y,-x,-z
x,y,-z
-y,x,-z
-x,y,z-1/2
-y,-x,z-1/2
x,-y,z-1/2
y,x,z-1/2
x+1/2,y+1/2,z+1/2
-y+1/2,x+1/2,z+1/2
-x+1/2,-y+1/2,z+1/2
y+1/2,-x+1/2,z+1/2
x+1/2,-y+1/2,-z+1
y+1/2,x+1/2,-z+1
-x+1/2,y+1/2,-z+1
-y+1/2,-x+1/2,-z+1
-x+1/2,-y+1/2,-z+1/2
y+1/2,-x+1/2,-z+1/2
x+1/2,y+1/2,-z+1/2
-y+1/2,x+1/2,-z+1/2
-x+1/2,y+1/2,z
-y+1/2,-x+1/2,z
x+1/2,-y+1/2,z
y+1/2,x+1/2,z
loop_
_atom_site_label
_atom_site_type_symbol
_atom_site_fract_x
_atom_site_fract_y
_atom_site_fract_z
_atom_site_occupancy
_atom_site_U_iso_or_equiv
Ag2 Ag 0.378 0.878 0 1 0.0
Yb1 Yb 0 0 0 1 0.0
Ag1 Ag 0 0 0.25 1 0.0
Yb2 Yb 0.164 0.664 0.15 1 0.0
