#------------------------------------------------------------------------------
#$Date: 2016-02-14 16:26:36 +0200 (Sun, 14 Feb 2016) $
#$Revision: 176435 $
#$URL: svn://www.crystallography.net/cod/cif/1/51/03/1510301.cif $
#------------------------------------------------------------------------------
#
# This file is available in the Crystallography Open Database (COD),
# http://www.crystallography.net/
#
# All data on this site have been placed in the public domain by the
# contributors.
#
data_1510301
loop_
_publ_author_name
'Westgren, A.'
'Stenbeck, S.'
_publ_section_title
;
 Roentgenanalyse der Gold-Zinn-Legierungen
;
_journal_name_full
;
Zeitschrift fuer Physikalische Chemie, Abteilung B: Chemie der
 Elementarprozesse, Aufbau der Materie
;
_journal_page_first              91
_journal_page_last               96
_journal_volume                  14
_journal_year                    1931
_chemical_formula_sum            'Au Sn'
_chemical_name_systematic        'Au Sn'
_space_group_IT_number           194
_symmetry_space_group_name_Hall  '-P 6c 2c'
_symmetry_space_group_name_H-M   'P 63/m m c'
_cell_angle_alpha                90
_cell_angle_beta                 90
_cell_angle_gamma                120
_cell_formula_units_Z            2
_cell_length_a                   4.323
_cell_length_b                   4.323
_cell_length_c                   5.523
_cell_volume                     89.387
_citation_journal_id_ASTM        ZPCBAL
_cod_data_source_file            gold_367.cif
_cod_data_source_block           Au1Sn1
_cod_original_cell_volume        89.38736
_cod_original_formula_sum        'Au1 Sn1'
_cod_database_code               1510301
loop_
_symmetry_equiv_pos_as_xyz
x,y,z
x-y,x,z+1/2
-y,x-y,z
-x,-y,z+1/2
-x+y,-x,z
y,-x+y,z+1/2
-y,-x,-z+1/2
x-y,-y,-z
x,x-y,-z+1/2
y,x,-z
-x+y,y,-z+1/2
-x,-x+y,-z
-x,-y,-z
-x+y,-x,-z-1/2
y,-x+y,-z
x,y,-z-1/2
x-y,x,-z
-y,x-y,-z-1/2
y,x,z-1/2
-x+y,y,z
-x,-x+y,z-1/2
-y,-x,z
x-y,-y,z-1/2
x,x-y,z
loop_
_atom_site_label
_atom_site_type_symbol
_atom_site_fract_x
_atom_site_fract_y
_atom_site_fract_z
_atom_site_occupancy
_atom_site_U_iso_or_equiv
Au1 Au 0 0 0 1 0.0
Sn1 Sn 0.3333 0.6667 0.25 1 0.0
