#------------------------------------------------------------------------------
#$Date: 2016-02-14 16:26:36 +0200 (Sun, 14 Feb 2016) $
#$Revision: 176435 $
#$URL: svn://www.crystallography.net/cod/cif/1/51/04/1510420.cif $
#------------------------------------------------------------------------------
#
# This file is available in the Crystallography Open Database (COD),
# http://www.crystallography.net/
#
# All data on this site have been placed in the public domain by the
# contributors.
#
data_1510420
loop_
_publ_author_name
'Bruzzone, G.'
'Gschneidner, K.A.jr.'
'McMasters, O.D.'
'Palenzona, A.'
_publ_section_title
;
 Stoichiometry, crystal structures and some melting points of the
 lanthanide-gold alloys
;
_journal_name_full               'Journal of the Less-Common Metals'
_journal_page_first              135
_journal_page_last               160
_journal_paper_doi               10.1016/0022-5088(71)90125-1
_journal_volume                  25
_journal_year                    1971
_chemical_formula_sum            'Au2 Ho'
_chemical_name_systematic        'Au2 Ho'
_space_group_IT_number           139
_symmetry_space_group_name_Hall  '-I 4 2'
_symmetry_space_group_name_H-M   'I 4/m m m'
_cell_angle_alpha                90
_cell_angle_beta                 90
_cell_angle_gamma                90
_cell_formula_units_Z            2
_cell_length_a                   3.6771
_cell_length_b                   3.6771
_cell_length_c                   8.9416
_cell_volume                     120.900
_citation_journal_id_ASTM        JCOMAH
_cod_data_source_file            gold_509.cif
_cod_data_source_block           Au2Ho1
_cod_original_cell_volume        120.8999
_cod_original_formula_sum        'Au2 Ho1'
_cod_database_code               1510420
loop_
_symmetry_equiv_pos_as_xyz
x,y,z
-y,x,z
-x,-y,z
y,-x,z
x,-y,-z
y,x,-z
-x,y,-z
-y,-x,-z
-x,-y,-z
y,-x,-z
x,y,-z
-y,x,-z
-x,y,z
-y,-x,z
x,-y,z
y,x,z
x+1/2,y+1/2,z+1/2
-y+1/2,x+1/2,z+1/2
-x+1/2,-y+1/2,z+1/2
y+1/2,-x+1/2,z+1/2
x+1/2,-y+1/2,-z+1/2
y+1/2,x+1/2,-z+1/2
-x+1/2,y+1/2,-z+1/2
-y+1/2,-x+1/2,-z+1/2
-x+1/2,-y+1/2,-z+1/2
y+1/2,-x+1/2,-z+1/2
x+1/2,y+1/2,-z+1/2
-y+1/2,x+1/2,-z+1/2
-x+1/2,y+1/2,z+1/2
-y+1/2,-x+1/2,z+1/2
x+1/2,-y+1/2,z+1/2
y+1/2,x+1/2,z+1/2
loop_
_atom_site_label
_atom_site_type_symbol
_atom_site_fract_x
_atom_site_fract_y
_atom_site_fract_z
_atom_site_occupancy
_atom_site_U_iso_or_equiv
Ho1 Ho 0 0 0 1 0.0
Au1 Au 0 0 0.342 1 0.0
