#------------------------------------------------------------------------------
#$Date: 2016-02-18 17:37:37 +0200 (Thu, 18 Feb 2016) $
#$Revision: 176729 $
#$URL: svn://www.crystallography.net/cod/cif/1/51/09/1510952.cif $
#------------------------------------------------------------------------------
#
# This file is available in the Crystallography Open Database (COD),
# http://www.crystallography.net/
#
# All data on this site have been placed in the public domain by the
# contributors.
#
data_1510952
loop_
_publ_author_name
'Lundstroem, T.'
_publ_section_title
;
 The structure of Ru2 B3 and W B2.0, as determined by single-crystal
 diffractometry, and some notes on the W - B system
;
_journal_name_full               'Arkiv foer Kemi'
_journal_page_first              115
_journal_page_last               127
_journal_volume                  30
_journal_year                    1968
_chemical_formula_sum            'B3 Ru2'
_chemical_name_systematic        'Ru2 B3'
_space_group_IT_number           194
_symmetry_space_group_name_Hall  '-P 6c 2c'
_symmetry_space_group_name_H-M   'P 63/m m c'
_cell_angle_alpha                90
_cell_angle_beta                 90
_cell_angle_gamma                120
_cell_formula_units_Z            2
_cell_length_a                   2.9051
_cell_length_b                   2.9051
_cell_length_c                   12.8125
_cell_volume                     93.645
_citation_journal_id_ASTM        ARKEAD
_cod_data_source_file            boron_485.cif
_cod_data_source_block           B3Ru2
_cod_original_cell_volume        93.64545
_cod_database_code               1510952
loop_
_symmetry_equiv_pos_as_xyz
x,y,z
x-y,x,z+1/2
-y,x-y,z
-x,-y,z+1/2
-x+y,-x,z
y,-x+y,z+1/2
-y,-x,-z+1/2
x-y,-y,-z
x,x-y,-z+1/2
y,x,-z
-x+y,y,-z+1/2
-x,-x+y,-z
-x,-y,-z
-x+y,-x,-z-1/2
y,-x+y,-z
x,y,-z-1/2
x-y,x,-z
-y,x-y,-z-1/2
y,x,z-1/2
-x+y,y,z
-x,-x+y,z-1/2
-y,-x,z
x-y,-y,z-1/2
x,x-y,z
loop_
_atom_site_label
_atom_site_type_symbol
_atom_site_fract_x
_atom_site_fract_y
_atom_site_fract_z
_atom_site_occupancy
_atom_site_U_iso_or_equiv
Ru1 Ru 0.3333 0.6667 0.13985 1 0.0
B1 B 0.3333 0.6667 0.9722 1 0.0
B2 B 0.3333 0.6667 0.75 1 0.0
