#------------------------------------------------------------------------------
#$Date: 2016-02-14 16:26:36 +0200 (Sun, 14 Feb 2016) $
#$Revision: 176435 $
#$URL: svn://www.crystallography.net/cod/cif/1/51/03/1510358.cif $
#------------------------------------------------------------------------------
#
# This file is available in the Crystallography Open Database (COD),
# http://www.crystallography.net/
#
# All data on this site have been placed in the public domain by the
# contributors.
#
data_1510358
loop_
_publ_author_name
'Bruzzone, G.'
_publ_section_title
;
 Alcuni composti intermetrallici M X2 formati dal Ca, Sr e Ba
;
_journal_name_full
;
Atti della Accademia Nazionale dei Lincei, Classe di Scienze Fisiche,
 Matematiche e Naturali, Rendiconti, Serie 8 (1, 1946-)
;
_journal_page_first              235
_journal_page_last               241
_journal_volume                  48
_journal_year                    1970
_chemical_formula_sum            'Au2 Ba'
_chemical_name_systematic        'Au2 Ba'
_space_group_IT_number           191
_symmetry_space_group_name_Hall  '-P 6 2'
_symmetry_space_group_name_H-M   'P 6/m m m'
_cell_angle_alpha                90
_cell_angle_beta                 90
_cell_angle_gamma                120
_cell_formula_units_Z            1
_cell_length_a                   4.804
_cell_length_b                   4.804
_cell_length_c                   4.119
_cell_volume                     82.324
_citation_journal_id_ASTM        AANL8V
_cod_data_source_file            gold_433.cif
_cod_data_source_block           Au2Ba1
_cod_original_cell_volume        82.32436
_cod_original_formula_sum        'Au2 Ba1'
_cod_database_code               1510358
loop_
_symmetry_equiv_pos_as_xyz
x,y,z
x-y,x,z
-y,x-y,z
-x,-y,z
-x+y,-x,z
y,-x+y,z
-y,-x,-z
x-y,-y,-z
x,x-y,-z
y,x,-z
-x+y,y,-z
-x,-x+y,-z
-x,-y,-z
-x+y,-x,-z
y,-x+y,-z
x,y,-z
x-y,x,-z
-y,x-y,-z
y,x,z
-x+y,y,z
-x,-x+y,z
-y,-x,z
x-y,-y,z
x,x-y,z
loop_
_atom_site_label
_atom_site_type_symbol
_atom_site_fract_x
_atom_site_fract_y
_atom_site_fract_z
_atom_site_occupancy
_atom_site_U_iso_or_equiv
Ba1 Ba 0 0 0 1 0.0
Au1 Au 0.3333 0.6667 0.5 1 0.0
