#------------------------------------------------------------------------------
#$Date: 2016-02-14 16:26:36 +0200 (Sun, 14 Feb 2016) $
#$Revision: 176435 $
#$URL: svn://www.crystallography.net/cod/cif/1/51/00/1510013.cif $
#------------------------------------------------------------------------------
#
# This file is available in the Crystallography Open Database (COD),
# http://www.crystallography.net/
#
# All data on this site have been placed in the public domain by the
# contributors.
#
data_1510013
loop_
_publ_author_name
'Ferguson, R.B.'
'Campbell, A.N.'
'Wagemann, R.'
_publ_section_title
;
 The silver-indium system: Thermal analysis, photomicrography, electron
 microprobe, and X-ray powder diffraction results
;
_journal_name_full               'Canadian Journal of Chemistry'
_journal_page_first              1703
_journal_page_last               1715
_journal_paper_doi               10.1139/v70-281
_journal_volume                  48
_journal_year                    1970
_chemical_formula_sum            'Ag3 In'
_chemical_name_systematic        'Ag3 In'
_space_group_IT_number           221
_symmetry_space_group_name_Hall  '-P 4 2 3'
_symmetry_space_group_name_H-M   'P m -3 m'
_cell_angle_alpha                90
_cell_angle_beta                 90
_cell_angle_gamma                90
_cell_formula_units_Z            1
_cell_length_a                   4.144
_cell_length_b                   4.144
_cell_length_c                   4.144
_cell_volume                     71.164
_citation_journal_id_ASTM        CJCHAG
_cod_data_source_file            silver3-x_44.cif
_cod_data_source_block           Ag3In1
_cod_original_cell_volume        71.16382
_cod_original_formula_sum        'Ag3 In1'
_cod_database_code               1510013
loop_
_symmetry_equiv_pos_as_xyz
x,y,z
-y,x,z
-x,-y,z
y,-x,z
x,-y,-z
y,x,-z
-x,y,-z
-y,-x,-z
z,x,y
-x,z,y
-z,-x,y
x,-z,y
z,-x,-y
x,z,-y
-z,x,-y
-x,-z,-y
y,z,x
y,-z,-x
z,y,-x
-y,z,-x
-z,-y,-x
-y,-z,x
z,-y,x
-z,y,x
-x,-y,-z
y,-x,-z
x,y,-z
-y,x,-z
-x,y,z
-y,-x,z
x,-y,z
y,x,z
-z,-x,-y
x,-z,-y
z,x,-y
-x,z,-y
-z,x,y
-x,-z,y
z,-x,y
x,z,y
-y,-z,-x
-y,z,x
-z,-y,x
y,-z,x
z,y,x
y,z,-x
-z,y,-x
z,-y,-x
loop_
_atom_site_label
_atom_site_type_symbol
_atom_site_fract_x
_atom_site_fract_y
_atom_site_fract_z
_atom_site_occupancy
_atom_site_U_iso_or_equiv
In1 In 0 0 0 1 0.0
Ag1 Ag 0 0.5 0.5 1 0.0
