#------------------------------------------------------------------------------
#$Date: 2016-02-14 16:26:36 +0200 (Sun, 14 Feb 2016) $
#$Revision: 176435 $
#$URL: svn://www.crystallography.net/cod/cif/1/51/05/1510572.cif $
#------------------------------------------------------------------------------
#
# This file is available in the Crystallography Open Database (COD),
# http://www.crystallography.net/
#
# All data on this site have been placed in the public domain by the
# contributors.
#
data_1510572
loop_
_publ_author_name
'Heumann, T.'
'Feller-Kniepmeier, M.'
_publ_section_title
;
 Das Zustandsbild Gold-Strontium
;
_journal_name_full               'Zeitschrift fuer Metallkunde'
_journal_page_first              404
_journal_page_last               408
_journal_volume                  51
_journal_year                    1960
_chemical_formula_sum            'Au5 Sr'
_chemical_name_systematic        'Au5 Sr'
_space_group_IT_number           191
_symmetry_space_group_name_Hall  '-P 6 2'
_symmetry_space_group_name_H-M   'P 6/m m m'
_cell_angle_alpha                90
_cell_angle_beta                 90
_cell_angle_gamma                120
_cell_formula_units_Z            1
_cell_length_a                   5.627
_cell_length_b                   5.627
_cell_length_c                   4.616
_cell_volume                     126.576
_citation_journal_id_ASTM        ZEMTAE
_cod_data_source_file            gold_676.cif
_cod_data_source_block           Au5Sr1
_cod_original_cell_volume        126.5757
_cod_original_formula_sum        'Au5 Sr1'
_cod_database_code               1510572
loop_
_symmetry_equiv_pos_as_xyz
x,y,z
x-y,x,z
-y,x-y,z
-x,-y,z
-x+y,-x,z
y,-x+y,z
-y,-x,-z
x-y,-y,-z
x,x-y,-z
y,x,-z
-x+y,y,-z
-x,-x+y,-z
-x,-y,-z
-x+y,-x,-z
y,-x+y,-z
x,y,-z
x-y,x,-z
-y,x-y,-z
y,x,z
-x+y,y,z
-x,-x+y,z
-y,-x,z
x-y,-y,z
x,x-y,z
loop_
_atom_site_label
_atom_site_type_symbol
_atom_site_fract_x
_atom_site_fract_y
_atom_site_fract_z
_atom_site_occupancy
_atom_site_U_iso_or_equiv
Sr1 Sr 0 0 0 1 0.0
Au1 Au 0.3333 0.6667 0 1 0.0
Au2 Au 0.5 0 0.5 1 0.0
