#------------------------------------------------------------------------------
#$Date: 2016-02-14 16:26:36 +0200 (Sun, 14 Feb 2016) $
#$Revision: 176435 $
#$URL: svn://www.crystallography.net/cod/cif/1/51/03/1510313.cif $
#------------------------------------------------------------------------------
#
# This file is available in the Crystallography Open Database (COD),
# http://www.crystallography.net/
#
# All data on this site have been placed in the public domain by the
# contributors.
#
data_1510313
loop_
_publ_author_name
'Liu Baixin'
_publ_section_title
;
 A metastable electron compound formed by ion irradiation
;
_journal_name_full
'Physica Status Solidi, Sectio A: Applied Research'
_journal_page_first              77
_journal_page_last               81
_journal_volume                  75
_journal_year                    1983
_chemical_formula_sum            'Au Ti'
_chemical_name_systematic        '(Au Ti)'
_space_group_IT_number           194
_symmetry_space_group_name_Hall  '-P 6c 2c'
_symmetry_space_group_name_H-M   'P 63/m m c'
_cell_angle_alpha                90
_cell_angle_beta                 90
_cell_angle_gamma                120
_cell_formula_units_Z            1
_cell_length_a                   3.27
_cell_length_b                   3.27
_cell_length_c                   5.26
_cell_volume                     48.709
_citation_journal_id_ASTM        PSSABA
_cod_data_source_file            gold_381.cif
_cod_data_source_block           Au1Ti1
_cod_original_cell_volume        48.7093
_cod_original_formula_sum        'Au1 Ti1'
_cod_database_code               1510313
loop_
_symmetry_equiv_pos_as_xyz
x,y,z
x-y,x,z+1/2
-y,x-y,z
-x,-y,z+1/2
-x+y,-x,z
y,-x+y,z+1/2
-y,-x,-z+1/2
x-y,-y,-z
x,x-y,-z+1/2
y,x,-z
-x+y,y,-z+1/2
-x,-x+y,-z
-x,-y,-z
-x+y,-x,-z-1/2
y,-x+y,-z
x,y,-z-1/2
x-y,x,-z
-y,x-y,-z-1/2
y,x,z-1/2
-x+y,y,z
-x,-x+y,z-1/2
-y,-x,z
x-y,-y,z-1/2
x,x-y,z
loop_
_atom_site_label
_atom_site_type_symbol
_atom_site_fract_x
_atom_site_fract_y
_atom_site_fract_z
_atom_site_occupancy
_atom_site_U_iso_or_equiv
Au1 Au 0.3333 0.6667 0.25 0.5 0.0
Ti1 Ti 0.3333 0.6667 0.25 0.5 0.0
