#------------------------------------------------------------------------------
#$Date: 2016-02-14 06:40:26 +0200 (Sun, 14 Feb 2016) $
#$Revision: 176432 $
#$URL: svn://www.crystallography.net/cod/cif/1/51/04/1510499.cif $
#------------------------------------------------------------------------------
#
# This file is available in the Crystallography Open Database (COD),
# http://www.crystallography.net/
#
# All data on this site have been placed in the public domain by the
# contributors.
#
data_1510499
loop_
_publ_author_name
'McMasters, O.D.'
'Bruzzone, G.'
'Gschneidner, K.A.jr.'
'Palenzona, A.'
_publ_section_title
;
 Stoichiometry, crystal structure and some melting points of the
 lanthanide-gold alloys
;
_journal_name_full               'Journal of the Less-Common Metals'
_journal_page_first              135
_journal_page_last               160
_journal_paper_doi               10.1016/0022-5088(71)90125-1
_journal_volume                  25
_journal_year                    1971
_chemical_formula_sum            'Au3 Ho'
_chemical_name_systematic        'Au3 Ho'
_space_group_IT_number           59
_symmetry_space_group_name_Hall  'P 2 2ab -1ab'
_symmetry_space_group_name_H-M   'P m m n :1'
_cell_angle_alpha                90
_cell_angle_beta                 90
_cell_angle_gamma                90
_cell_formula_units_Z            2
_cell_length_a                   6.0598
_cell_length_b                   4.966
_cell_length_c                   5.0864
_cell_volume                     153.065
_citation_journal_id_ASTM        JCOMAH
_cod_data_source_file            gold_597.cif
_cod_data_source_block           Au3Ho1
_cod_original_cell_volume        153.0649
_cod_original_sg_symbol_Hall     '-P 2ab 2a (x-1/4,y-1/4,z)'
_cod_original_formula_sum        'Au3 Ho1'
_cod_database_code               1510499
loop_
_symmetry_equiv_pos_as_xyz
x,y,z
-x,-y,z
x+1/2,-y+1/2,-z
-x+1/2,y+1/2,-z
-x+1/2,-y+1/2,-z
x+1/2,y+1/2,-z
-x,y,z
x,-y,z
loop_
_atom_site_label
_atom_site_type_symbol
_atom_site_fract_x
_atom_site_fract_y
_atom_site_fract_z
_atom_site_occupancy
_atom_site_U_iso_or_equiv
Ho1 Ho 0 0 0.655 1 0.0
Au2 Au 0.25 0 0.155 1 0.0
Au1 Au 0 0.5 0.345 1 0.0
