#------------------------------------------------------------------------------
#$Date: 2016-02-18 17:37:37 +0200 (Thu, 18 Feb 2016) $
#$Revision: 176729 $
#$URL: svn://www.crystallography.net/cod/cif/1/51/03/1510348.cif $
#------------------------------------------------------------------------------
#
# This file is available in the Crystallography Open Database (COD),
# http://www.crystallography.net/
#
# All data on this site have been placed in the public domain by the
# contributors.
#
data_1510348
loop_
_publ_author_name
'Hume-Rothery, W.'
'Hiscocks, S.E.R.'
_publ_section_title
;
 The equilibrium diagram of the system gold-indium
;
_journal_name_full
;
Proceedings of the Royal Society of London, Series A: Mathematical and
 Physical Sciences (76,1906-)
;
_journal_page_first              318
_journal_page_last               330
_journal_paper_doi               10.1098/rspa.1964.0235
_journal_volume                  282
_journal_year                    1964
_chemical_formula_sum            'Au1.6 In0.4'
_chemical_name_systematic        '(Au4 In)0.4'
_space_group_IT_number           194
_symmetry_space_group_name_Hall  '-P 6c 2c'
_symmetry_space_group_name_H-M   'P 63/m m c'
_cell_angle_alpha                90
_cell_angle_beta                 90
_cell_angle_gamma                120
_cell_formula_units_Z            1
_cell_length_a                   2.915
_cell_length_b                   2.915
_cell_length_c                   4.7919
_cell_volume                     35.263
_citation_journal_id_ASTM        PRLAAZ
_cod_data_source_file            gold_422.cif
_cod_data_source_block           Au1.6In0.4
_cod_original_cell_volume        35.2627
_cod_database_code               1510348
loop_
_symmetry_equiv_pos_as_xyz
x,y,z
x-y,x,z+1/2
-y,x-y,z
-x,-y,z+1/2
-x+y,-x,z
y,-x+y,z+1/2
-y,-x,-z+1/2
x-y,-y,-z
x,x-y,-z+1/2
y,x,-z
-x+y,y,-z+1/2
-x,-x+y,-z
-x,-y,-z
-x+y,-x,-z-1/2
y,-x+y,-z
x,y,-z-1/2
x-y,x,-z
-y,x-y,-z-1/2
y,x,z-1/2
-x+y,y,z
-x,-x+y,z-1/2
-y,-x,z
x-y,-y,z-1/2
x,x-y,z
loop_
_atom_site_label
_atom_site_type_symbol
_atom_site_fract_x
_atom_site_fract_y
_atom_site_fract_z
_atom_site_occupancy
_atom_site_U_iso_or_equiv
In1 In 0.3333 0.6667 0.25 0.2 0.0
Au1 Au 0.3333 0.6667 0.25 0.8 0.0
