#------------------------------------------------------------------------------
#$Date: 2016-02-14 06:40:26 +0200 (Sun, 14 Feb 2016) $
#$Revision: 176432 $
#$URL: svn://www.crystallography.net/cod/cif/1/51/05/1510519.cif $
#------------------------------------------------------------------------------
#
# This file is available in the Crystallography Open Database (COD),
# http://www.crystallography.net/
#
# All data on this site have been placed in the public domain by the
# contributors.
#
data_1510519
loop_
_publ_author_name
'Iwasaki, H.'
_publ_section_title
;
 Study on the ordered phases with long period in the gold-zinc alloy
 system. II. Structure analysis of Au3 Zn (R1), Au3 Zn (R2) and Au3+Zn
;
_journal_name_full               'Journal of the Physical Society of Japan'
_journal_page_first              1620
_journal_page_last               1633
_journal_paper_doi               10.1143/JPSJ.17.1620
_journal_volume                  17
_journal_year                    1962
_chemical_formula_sum            'Au3 Zn'
_chemical_name_systematic        'Au3 Zn'
_space_group_IT_number           142
_symmetry_space_group_name_Hall  'I 4bw 2aw -1bw'
_symmetry_space_group_name_H-M   'I 41/a c d :1'
_cell_angle_alpha                90
_cell_angle_beta                 90
_cell_angle_gamma                90
_cell_formula_units_Z            16
_cell_length_a                   5.586
_cell_length_b                   5.586
_cell_length_c                   33.4
_cell_volume                     1042.193
_citation_journal_id_ASTM        JUPSAU
_cod_data_source_file            gold_618.cif
_cod_data_source_block           Au3Zn1
_cod_original_sg_symbol_Hall     '-I 4bd 2c (x+1/2,y+1/4,z-3/8)'
_cod_original_formula_sum        'Au3 Zn1'
_cod_database_code               1510519
loop_
_symmetry_equiv_pos_as_xyz
x,y,z
-y,x+1/2,z+1/4
-x+1/2,-y+1/2,z+1/2
y+1/2,-x,z+3/4
x,-y+1/2,-z+3/4
y+1/2,x+1/2,-z
-x+1/2,y,-z+1/4
-y,-x,-z+1/2
-x,-y+1/2,-z+1/4
y,-x,-z
x-1/2,y,-z-1/4
-y-1/2,x+1/2,-z-1/2
-x,y,z-1/2
-y-1/2,-x,z+1/4
x-1/2,-y+1/2,z
y,x+1/2,z-1/4
x+1/2,y+1/2,z+1/2
-y+1/2,x+1,z+3/4
-x+1,-y+1,z+1
y+1,-x+1/2,z+5/4
x+1/2,-y+1,-z+5/4
y+1,x+1,-z+1/2
-x+1,y+1/2,-z+3/4
-y+1/2,-x+1/2,-z+1
-x+1/2,-y+1,-z+3/4
y+1/2,-x+1/2,-z+1/2
x,y+1/2,-z+1/4
-y,x+1,-z
-x+1/2,y+1/2,z
-y,-x+1/2,z+3/4
x,-y+1,z+1/2
y+1/2,x+1,z+1/4
loop_
_atom_site_label
_atom_site_type_symbol
_atom_site_fract_x
_atom_site_fract_y
_atom_site_fract_z
_atom_site_occupancy
_atom_site_U_iso_or_equiv
Zn1 Zn 0 0 0.182 1 0.0
Au1 Au 0 0 0.058 1 0.0
Au3 Au 0.19 0.19 0.25 1 0.0
Au2 Au 0.25 0.25 0.125 1 0.0
