#------------------------------------------------------------------------------
#$Date: 2016-02-14 16:26:36 +0200 (Sun, 14 Feb 2016) $
#$Revision: 176435 $
#$URL: svn://www.crystallography.net/cod/cif/1/51/07/1510778.cif $
#------------------------------------------------------------------------------
#
# This file is available in the Crystallography Open Database (COD),
# http://www.crystallography.net/
#
# All data on this site have been placed in the public domain by the
# contributors.
#
data_1510778
loop_
_publ_author_name
'Loennberg, B.'
_publ_section_title
;
 Thermal expansion studies on the group IV-VII transition metal diborides
;
_journal_name_full               'Journal of the Less-Common Metals'
_journal_page_first              145
_journal_page_last               156
_journal_paper_doi               10.1016/0022-5088(88)90219-6
_journal_volume                  141
_journal_year                    1988
_chemical_formula_sum            'B2 Nb'
_chemical_name_systematic        'Nb B2'
_space_group_IT_number           191
_symmetry_space_group_name_Hall  '-P 6 2'
_symmetry_space_group_name_H-M   'P 6/m m m'
_cell_angle_alpha                90
_cell_angle_beta                 90
_cell_angle_gamma                120
_cell_formula_units_Z            1
_cell_length_a                   3.11
_cell_length_b                   3.11
_cell_length_c                   3.27
_cell_volume                     27.390
_citation_journal_id_ASTM        JCOMAH
_cod_data_source_file            boron_275.cif
_cod_data_source_block           B2Nb1
_cod_original_cell_volume        27.39045
_cod_original_formula_sum        'B2 Nb1'
_cod_database_code               1510778
loop_
_symmetry_equiv_pos_as_xyz
x,y,z
x-y,x,z
-y,x-y,z
-x,-y,z
-x+y,-x,z
y,-x+y,z
-y,-x,-z
x-y,-y,-z
x,x-y,-z
y,x,-z
-x+y,y,-z
-x,-x+y,-z
-x,-y,-z
-x+y,-x,-z
y,-x+y,-z
x,y,-z
x-y,x,-z
-y,x-y,-z
y,x,z
-x+y,y,z
-x,-x+y,z
-y,-x,z
x-y,-y,z
x,x-y,z
loop_
_atom_site_label
_atom_site_type_symbol
_atom_site_fract_x
_atom_site_fract_y
_atom_site_fract_z
_atom_site_occupancy
_atom_site_U_iso_or_equiv
B1 B 0.3333 0.6667 0.5 1 0.0
Nb1 Nb 0 0 0 1 0.0
