#------------------------------------------------------------------------------
#$Date: 2016-02-14 16:26:36 +0200 (Sun, 14 Feb 2016) $
#$Revision: 176435 $
#$URL: svn://www.crystallography.net/cod/cif/1/51/02/1510296.cif $
#------------------------------------------------------------------------------
#
# This file is available in the Crystallography Open Database (COD),
# http://www.crystallography.net/
#
# All data on this site have been placed in the public domain by the
# contributors.
#
data_1510296
loop_
_publ_author_name
'Srivastava, O.N.'
'Srivastava, M.M.'
_publ_section_title
;
 On the crystal structure of Au Se alloy phase
;
_journal_name_full               'Zeitschrift fuer Metallkunde'
_journal_page_first              158
_journal_page_last               159
_journal_volume                  63
_journal_year                    1972
_chemical_formula_sum            'Au Se'
_chemical_name_systematic        'Au Se'
_space_group_IT_number           194
_symmetry_space_group_name_Hall  '-P 6c 2c'
_symmetry_space_group_name_H-M   'P 63/m m c'
_cell_angle_alpha                90
_cell_angle_beta                 90
_cell_angle_gamma                120
_cell_formula_units_Z            2
_cell_length_a                   4.12
_cell_length_b                   4.12
_cell_length_c                   5.39
_cell_volume                     79.234
_citation_journal_id_ASTM        ZEMTAE
_cod_data_source_file            gold_360.cif
_cod_data_source_block           Au1Se1
_cod_original_cell_volume        79.23441
_cod_original_formula_sum        'Au1 Se1'
_cod_database_code               1510296
loop_
_symmetry_equiv_pos_as_xyz
x,y,z
x-y,x,z+1/2
-y,x-y,z
-x,-y,z+1/2
-x+y,-x,z
y,-x+y,z+1/2
-y,-x,-z+1/2
x-y,-y,-z
x,x-y,-z+1/2
y,x,-z
-x+y,y,-z+1/2
-x,-x+y,-z
-x,-y,-z
-x+y,-x,-z-1/2
y,-x+y,-z
x,y,-z-1/2
x-y,x,-z
-y,x-y,-z-1/2
y,x,z-1/2
-x+y,y,z
-x,-x+y,z-1/2
-y,-x,z
x-y,-y,z-1/2
x,x-y,z
loop_
_atom_site_label
_atom_site_type_symbol
_atom_site_fract_x
_atom_site_fract_y
_atom_site_fract_z
_atom_site_occupancy
_atom_site_U_iso_or_equiv
Se1 Se-2 0.3333 0.6667 0.25 1 0.0
Au1 Au+2 0 0 0 1 0.0
