#------------------------------------------------------------------------------
#$Date: 2016-02-18 17:37:37 +0200 (Thu, 18 Feb 2016) $
#$Revision: 176729 $
#$URL: svn://www.crystallography.net/cod/cif/1/51/05/1510517.cif $
#------------------------------------------------------------------------------
#
# This file is available in the Crystallography Open Database (COD),
# http://www.crystallography.net/
#
# All data on this site have been placed in the public domain by the
# contributors.
#
data_1510517
loop_
_publ_author_name
'Palenzona, A.'
'Iandelli, A.'
_publ_section_title
;
 The yttrium-gold system
;
_journal_name_full               'Journal of the Less-Common Metals'
_journal_page_first              221
_journal_page_last               227
_journal_paper_doi               10.1016/0022-5088(69)90160-X
_journal_volume                  18
_journal_year                    1969
_chemical_formula_sum            'Au3 Yb5'
_chemical_name_systematic        'Au3 Yb5'
_space_group_IT_number           140
_symmetry_space_group_name_Hall  '-I 4 2c'
_symmetry_space_group_name_H-M   'I 4/m c m'
_cell_angle_alpha                90
_cell_angle_beta                 90
_cell_angle_gamma                90
_cell_formula_units_Z            4
_cell_length_a                   7.793
_cell_length_b                   7.793
_cell_length_c                   14.26
_cell_volume                     866.022
_citation_journal_id_ASTM        JCOMAH
_cod_data_source_file            gold_616.cif
_cod_data_source_block           Au3Yb5
_cod_database_code               1510517
loop_
_symmetry_equiv_pos_as_xyz
x,y,z
-y,x,z
-x,-y,z
y,-x,z
x,-y,-z+1/2
y,x,-z+1/2
-x,y,-z+1/2
-y,-x,-z+1/2
-x,-y,-z
y,-x,-z
x,y,-z
-y,x,-z
-x,y,z-1/2
-y,-x,z-1/2
x,-y,z-1/2
y,x,z-1/2
x+1/2,y+1/2,z+1/2
-y+1/2,x+1/2,z+1/2
-x+1/2,-y+1/2,z+1/2
y+1/2,-x+1/2,z+1/2
x+1/2,-y+1/2,-z+1
y+1/2,x+1/2,-z+1
-x+1/2,y+1/2,-z+1
-y+1/2,-x+1/2,-z+1
-x+1/2,-y+1/2,-z+1/2
y+1/2,-x+1/2,-z+1/2
x+1/2,y+1/2,-z+1/2
-y+1/2,x+1/2,-z+1/2
-x+1/2,y+1/2,z
-y+1/2,-x+1/2,z
x+1/2,-y+1/2,z
y+1/2,x+1/2,z
loop_
_atom_site_label
_atom_site_type_symbol
_atom_site_fract_x
_atom_site_fract_y
_atom_site_fract_z
_atom_site_occupancy
_atom_site_U_iso_or_equiv
Au1 Au 0 0 0.25 1 0.0
Yb2 Yb 0.17 0.67 0.15 1 0.0
Yb1 Yb 0 0 0 1 0.0
Au2 Au 0.38 0.88 0 1 0.0
