#------------------------------------------------------------------------------
#$Date: 2017-10-06 19:24:22 +0300 (Fri, 06 Oct 2017) $
#$Revision: 201816 $
#$URL: file:///home/coder/svn-repositories/cod/cif/9/00/99/9009915.cif $
#------------------------------------------------------------------------------
#
# This file is available in the Crystallography Open Database (COD),
# http://www.crystallography.net/. The original data for this entry
# were provided the American Mineralogist Crystal Structure Database,
# http://rruff.geo.arizona.edu/AMS/amcsd.php
#
# The file may be used within the scientific community so long as
# proper attribution is given to the journal article from which the
# data were obtained.
#
data_9009915
loop_
_publ_author_name
'Kjekshus, A.'
'Rakke, T.'
'Andresen, A. F.'
_publ_section_title
;Compounds with the marcasite type crystal structure. XII. Structural data for
 RuP2, RuAs2, RuSb2, OsP2, OsAs2, and OsSb2
;
_journal_name_full               'Acta Chemica Scandinavica A'
_journal_page_first              253
_journal_page_last               259
_journal_volume                  31
_journal_year                    1977
_chemical_formula_structural     RuSb2
_chemical_formula_sum            'Ru Sb2'
_space_group_IT_number           58
_symmetry_space_group_name_Hall  '-P 2 2n'
_symmetry_space_group_name_H-M   'P n n m'
_cell_angle_alpha                90
_cell_angle_beta                 90
_cell_angle_gamma                90
_cell_length_a                   5.9514
_cell_length_b                   6.6743
_cell_length_c                   3.1790
_cell_volume                     126.274
_database_code_amcsd             0011944
_exptl_crystal_density_diffrn    9.062
_cod_database_code               9009915
loop_
_symmetry_equiv_pos_as_xyz
x,y,z
1/2+x,1/2-y,1/2+z
1/2-x,1/2+y,1/2-z
1/2-x,1/2+y,1/2+z
1/2+x,1/2-y,1/2-z
x,y,-z
-x,-y,z
-x,-y,-z
loop_
_atom_site_label
_atom_site_fract_x
_atom_site_fract_y
_atom_site_fract_z
Ru 0.00000 0.00000 0.00000
Sb 0.18120 0.35900 0.00000
loop_
_cod_related_entry_id
_cod_related_entry_database
_cod_related_entry_code
1 AMCSD 0011944
