#------------------------------------------------------------------------------
#$Date: 2017-10-06 19:24:22 +0300 (Fri, 06 Oct 2017) $
#$Revision: 201816 $
#$URL: file:///home/coder/svn-repositories/cod/cif/9/00/99/9009912.cif $
#------------------------------------------------------------------------------
#
# This file is available in the Crystallography Open Database (COD),
# http://www.crystallography.net/. The original data for this entry
# were provided the American Mineralogist Crystal Structure Database,
# http://rruff.geo.arizona.edu/AMS/amcsd.php
#
# The file may be used within the scientific community so long as
# proper attribution is given to the journal article from which the
# data were obtained.
#
data_9009912
loop_
_publ_author_name
'Endresen, K.'
'Furuseth, S.'
'Selte, K.'
'Kjekshus, A.'
'Rakke, T.'
'Andresen, A. F.'
_publ_section_title
;
 On the MnP type structure of RuSb and RhSb
;
_journal_name_full               'Acta Chemica Scandinavica A'
_journal_page_first              249
_journal_page_last               252
_journal_volume                  31
_journal_year                    1977
_chemical_formula_structural     RuSb
_chemical_formula_sum            'Ru Sb'
_space_group_IT_number           62
_symmetry_space_group_name_Hall  '-P 2ac 2n'
_symmetry_space_group_name_H-M   'P n m a'
_cell_angle_alpha                90
_cell_angle_beta                 90
_cell_angle_gamma                90
_cell_length_a                   5.9608
_cell_length_b                   3.7023
_cell_length_c                   6.5797
_cell_volume                     145.205
_database_code_amcsd             0011941
_exptl_crystal_density_diffrn    10.193
_cod_database_code               9009912
loop_
_symmetry_equiv_pos_as_xyz
x,y,z
x,1/2-y,z
-x,1/2+y,-z
1/2-x,1/2+y,1/2+z
1/2+x,1/2-y,1/2-z
1/2+x,y,1/2-z
1/2-x,-y,1/2+z
-x,-y,-z
loop_
_atom_site_label
_atom_site_fract_x
_atom_site_fract_y
_atom_site_fract_z
Ru 0.00530 0.25000 0.20370
Sb 0.19920 0.25000 0.58080
loop_
_cod_related_entry_id
_cod_related_entry_database
_cod_related_entry_code
1 AMCSD 0011941
