#------------------------------------------------------------------------------
#$Date: 2016-02-13 21:28:24 +0200 (Sat, 13 Feb 2016) $
#$Revision: 176429 $
#$URL: svn://www.crystallography.net/cod/cif/1/52/62/1526289.cif $
#------------------------------------------------------------------------------
#
# This file is available in the Crystallography Open Database (COD),
# http://www.crystallography.net/
#
# All data on this site have been placed in the public domain by the
# contributors.
#
data_1526289
loop_
_publ_author_name
'Hayashi, J.'
'Shirotani, I.'
'Tanaka, Y.'
'Shimomura, O.'
'Adachi, T.'
'Kikegawa, T.'
_publ_section_title
;
 Phase transitions of Ln Sb (Ln = lanthanide) with (Na Cl)-type structure
 at high pressures
;
_journal_name_full               'Solid State Communications'
_journal_page_first              561
_journal_page_last               565
_journal_volume                  114
_journal_year                    2000
_chemical_formula_sum            'Pr Sb'
_chemical_name_systematic        'Pr Sb'
_space_group_IT_number           123
_symmetry_space_group_name_Hall  '-P 4 2'
_symmetry_space_group_name_H-M   'P 4/m m m'
_cell_angle_alpha                90
_cell_angle_beta                 90
_cell_angle_gamma                90
_cell_formula_units_Z            1
_cell_length_a                   3.86
_cell_length_b                   3.86
_cell_length_c                   3.187
_cell_volume                     47.485
_citation_journal_id_ASTM        SSCOA4
_cod_data_source_file            Hayashi_SSCOA4_2000_541.cif
_cod_data_source_block           Pr1Sb1
_cod_original_cell_volume        47.48502
_cod_original_formula_sum        'Pr1 Sb1'
_cod_database_code               1526289
loop_
_symmetry_equiv_pos_as_xyz
x,y,z
-y,x,z
-x,-y,z
y,-x,z
x,-y,-z
y,x,-z
-x,y,-z
-y,-x,-z
-x,-y,-z
y,-x,-z
x,y,-z
-y,x,-z
-x,y,z
-y,-x,z
x,-y,z
y,x,z
loop_
_atom_site_label
_atom_site_type_symbol
_atom_site_fract_x
_atom_site_fract_y
_atom_site_fract_z
_atom_site_occupancy
_atom_site_U_iso_or_equiv
Pr1 Pr 0 0 0 1 0.0
Sb1 Sb 0.5 0.5 0.5 1 0.0
