#------------------------------------------------------------------------------
#$Date: 2015-07-12 20:15:31 +0300 (Sun, 12 Jul 2015) $
#$Revision: 147796 $
#$URL: svn://www.crystallography.net/cod/cif/1/52/65/1526595.cif $
#------------------------------------------------------------------------------
#
# This file is available in the Crystallography Open Database (COD),
# http://www.crystallography.net/
#
# All data on this site have been placed in the public domain by the
# contributors.
#
data_1526595
loop_
_publ_author_name
'Shakeripour, H.'
'Akhavan, M.'
_publ_section_title
;
 Investigation of structure and transport properties of Gd1-x-z Prx Caz
 Ba2 Cu3 O7-d system
;
_journal_name_full               'Supercondunctivity: Science and Technology'
_journal_page_first              213
_journal_page_last               217
_journal_volume                  14
_journal_year                    2001
_chemical_formula_sum            'Ca0.148 Gd0.848'
_chemical_name_systematic        'Gd0.848 Ca0.148 Ba2 Cu3 O6.856'
_space_group_IT_number           47
_symmetry_space_group_name_Hall  '-P 2 2'
_symmetry_space_group_name_H-M   'P m m m'
_cell_angle_alpha                90
_cell_angle_beta                 90
_cell_angle_gamma                90
_cell_formula_units_Z            1
_cell_length_a                   3.8547
_cell_length_b                   3.9139
_cell_length_c                   11.676
_cell_volume                     176.155
_citation_journal_id_ASTM        SUSTEF
_cod_data_source_file            Shakeripour_SUSTEF_2001_1970.cif
_cod_data_source_block           Ca0.148Gd0.848
_cod_original_cell_volume        176.1548
_cod_database_code               1526595
loop_
_symmetry_equiv_pos_as_xyz
x,y,z
-x,-y,z
x,-y,-z
-x,y,-z
-x,-y,-z
x,y,-z
-x,y,z
x,-y,z
loop_
_atom_site_label
_atom_site_type_symbol
_atom_site_fract_x
_atom_site_fract_y
_atom_site_fract_z
_atom_site_occupancy
_atom_site_U_iso_or_equiv
Gd1 Gd+3 0.5 0.5 0.5 0.848 0.0
Ca1 Ca+2 0.5 0.5 0.5 0.148 0.0
