#------------------------------------------------------------------------------
#$Date: 2016-02-13 21:28:24 +0200 (Sat, 13 Feb 2016) $
#$Revision: 176429 $
#$URL: svn://www.crystallography.net/cod/cif/1/52/65/1526591.cif $
#------------------------------------------------------------------------------
#
# This file is available in the Crystallography Open Database (COD),
# http://www.crystallography.net/
#
# All data on this site have been placed in the public domain by the
# contributors.
#
data_1526591
loop_
_publ_author_name
'Shakeripour, H.'
'Akhavan, M.'
_publ_section_title
;
 Investigation of structure and transport properties of Gd1-x-z Prx Caz
 Ba2 Cu3 O7-d system
;
_journal_name_full               'Supercondunctivity: Science and Technology'
_journal_page_first              213
_journal_page_last               217
_journal_volume                  14
_journal_year                    2001
_chemical_formula_sum            Gd
_chemical_name_systematic        'Gd Ba2 Cu3 O6.874'
_space_group_IT_number           47
_symmetry_space_group_name_Hall  '-P 2 2'
_symmetry_space_group_name_H-M   'P m m m'
_cell_angle_alpha                90
_cell_angle_beta                 90
_cell_angle_gamma                90
_cell_formula_units_Z            1
_cell_length_a                   3.8445
_cell_length_b                   3.9094
_cell_length_c                   11.68
_cell_volume                     175.547
_citation_journal_id_ASTM        SUSTEF
_cod_data_source_file            Shakeripour_SUSTEF_2001_1968.cif
_cod_data_source_block           Gd1
_cod_original_cell_volume        175.5468
_cod_original_formula_sum        Gd1
_cod_database_code               1526591
loop_
_symmetry_equiv_pos_as_xyz
x,y,z
-x,-y,z
x,-y,-z
-x,y,-z
-x,-y,-z
x,y,-z
-x,y,z
x,-y,z
loop_
_atom_site_label
_atom_site_type_symbol
_atom_site_fract_x
_atom_site_fract_y
_atom_site_fract_z
_atom_site_occupancy
_atom_site_U_iso_or_equiv
Gd1 Gd+3 0.5 0.5 0.5 1 0.0
