#------------------------------------------------------------------------------
#$Date: 2015-07-12 19:26:12 +0300 (Sun, 12 Jul 2015) $
#$Revision: 147467 $
#$URL: svn://www.crystallography.net/cod/cif/1/52/63/1526317.cif $
#------------------------------------------------------------------------------
#
# This file is available in the Crystallography Open Database (COD),
# http://www.crystallography.net/
#
# All data on this site have been placed in the public domain by the
# contributors.
#
data_1526317
loop_
_publ_author_name
'Ramachandran, G.K.'
'McMillan, P.F.'
'Dong, J.'
'Sankey, O.F.'
_publ_section_title
;
 K7.62(1) Si46 and Rb6.15(2) Si46: two structure I clathrates with fully
 occupied framework sites
;
_journal_name_full               'Journal of Solid State Chemistry'
_journal_page_first              626
_journal_page_last               634
_journal_volume                  154
_journal_year                    2000
_chemical_formula_sum            'Rb6.148 Si46.27'
_chemical_name_systematic        'Rb6.148 Si46.27'
_space_group_IT_number           223
_symmetry_space_group_name_Hall  '-P 4n 2 3'
_symmetry_space_group_name_H-M   'P m -3 n'
_cell_angle_alpha                90
_cell_angle_beta                 90
_cell_angle_gamma                90
_cell_formula_units_Z            1
_cell_length_a                   10.27188
_cell_length_b                   10.27188
_cell_length_c                   10.27188
_cell_volume                     1083.802
_citation_journal_id_ASTM        JSSCBI
_cod_data_source_file            Ramachandran_JSSCBI_2000_29.cif
_cod_data_source_block           Rb6.148Si46.27
_cod_database_code               1526317
loop_
_symmetry_equiv_pos_as_xyz
x,y,z
-y+1/2,x+1/2,z+1/2
-x,-y,z
y+1/2,-x+1/2,z+1/2
x,-y,-z
y+1/2,x+1/2,-z+1/2
-x,y,-z
-y+1/2,-x+1/2,-z+1/2
z,x,y
-x+1/2,z+1/2,y+1/2
-z,-x,y
x+1/2,-z+1/2,y+1/2
z,-x,-y
x+1/2,z+1/2,-y+1/2
-z,x,-y
-x+1/2,-z+1/2,-y+1/2
y,z,x
y,-z,-x
z+1/2,y+1/2,-x+1/2
-y,z,-x
-z+1/2,-y+1/2,-x+1/2
-y,-z,x
z+1/2,-y+1/2,x+1/2
-z+1/2,y+1/2,x+1/2
-x,-y,-z
y-1/2,-x-1/2,-z-1/2
x,y,-z
-y-1/2,x-1/2,-z-1/2
-x,y,z
-y-1/2,-x-1/2,z-1/2
x,-y,z
y-1/2,x-1/2,z-1/2
-z,-x,-y
x-1/2,-z-1/2,-y-1/2
z,x,-y
-x-1/2,z-1/2,-y-1/2
-z,x,y
-x-1/2,-z-1/2,y-1/2
z,-x,y
x-1/2,z-1/2,y-1/2
-y,-z,-x
-y,z,x
-z-1/2,-y-1/2,x-1/2
y,-z,x
z-1/2,y-1/2,x-1/2
y,z,-x
-z-1/2,y-1/2,-x-1/2
z-1/2,-y-1/2,-x-1/2
loop_
_atom_site_label
_atom_site_type_symbol
_atom_site_fract_x
_atom_site_fract_y
_atom_site_fract_z
_atom_site_occupancy
_atom_site_U_iso_or_equiv
Rb1 Rb 0 0 0 0.218 0.0
Rb2 Rb 0.25 0.5 0 0.952 0.0
Si2 Si 0.1843 0.1843 0.1843 1.013 0.0
Si1 Si 0.25 0 0.5 0.995 0.0
Si3 Si 0 0.3037 0.1186 1.004 0.0
