#------------------------------------------------------------------------------
#$Date: 2016-02-13 21:28:24 +0200 (Sat, 13 Feb 2016) $
#$Revision: 176429 $
#$URL: svn://www.crystallography.net/cod/cif/1/52/64/1526432.cif $
#------------------------------------------------------------------------------
#
# This file is available in the Crystallography Open Database (COD),
# http://www.crystallography.net/
#
# All data on this site have been placed in the public domain by the
# contributors.
#
data_1526432
loop_
_publ_author_name
'Salamakha, P.S.'
'Sologub, O.L.'
'Righi, L.'
'Demchenko, P.'
'Bocelli, G.'
_publ_section_title
;
 Crystal structure of the Nd Ge1.66 compound
;
_journal_name_full               'Journal of Alloys Compd.'
_journal_page_first              1
_journal_page_last               3
_journal_volume                  315
_journal_year                    2001
_chemical_formula_sum            'Ge1.667 Nd'
_chemical_name_systematic        'Nd Ge1.667'
_space_group_IT_number           141
_symmetry_space_group_name_Hall  '-I 4bd 2'
_symmetry_space_group_name_H-M   'I 41/a m d :2'
_cell_angle_alpha                90
_cell_angle_beta                 90
_cell_angle_gamma                90
_cell_formula_units_Z            4
_cell_length_a                   4.18
_cell_length_b                   4.18
_cell_length_c                   13.98
_cell_volume                     244.264
_citation_journal_id_ASTM        JALCEU
_cod_data_source_file            Salamakha_JALCEU_2001_1162.cif
_cod_data_source_block           Ge1.667Nd1
_cod_original_cell_volume        244.2641
_cod_original_formula_sum        'Ge1.667 Nd1'
_cod_database_code               1526432
loop_
_symmetry_equiv_pos_as_xyz
x,y,z
-y+1/4,x+3/4,z+1/4
-x+1/2,-y,z+1/2
y+1/4,-x+1/4,z+3/4
x,-y,-z
y+1/4,x+3/4,-z+1/4
-x+1/2,y,-z+1/2
-y+1/4,-x+1/4,-z+3/4
-x,-y,-z
y-1/4,-x-3/4,-z-1/4
x-1/2,y,-z-1/2
-y-1/4,x-1/4,-z-3/4
-x,y,z
-y-1/4,-x-3/4,z-1/4
x-1/2,-y,z-1/2
y-1/4,x-1/4,z-3/4
x+1/2,y+1/2,z+1/2
-y+3/4,x+5/4,z+3/4
-x+1,-y+1/2,z+1
y+3/4,-x+3/4,z+5/4
x+1/2,-y+1/2,-z+1/2
y+3/4,x+5/4,-z+3/4
-x+1,y+1/2,-z+1
-y+3/4,-x+3/4,-z+5/4
-x+1/2,-y+1/2,-z+1/2
y+1/4,-x-1/4,-z+1/4
x,y+1/2,-z
-y+1/4,x+1/4,-z-1/4
-x+1/2,y+1/2,z+1/2
-y+1/4,-x-1/4,z+1/4
x,-y+1/2,z
y+1/4,x+1/4,z-1/4
loop_
_atom_site_label
_atom_site_type_symbol
_atom_site_fract_x
_atom_site_fract_y
_atom_site_fract_z
_atom_site_occupancy
_atom_site_U_iso_or_equiv
Nd1 Nd 0 0.75 0.125 1 0.0
Ge1 Ge 0 0.25 0.293 0.833 0.0
