#------------------------------------------------------------------------------
#$Date: 2015-07-12 20:10:19 +0300 (Sun, 12 Jul 2015) $
#$Revision: 147764 $
#$URL: svn://www.crystallography.net/cod/cif/1/52/65/1526564.cif $
#------------------------------------------------------------------------------
#
# This file is available in the Crystallography Open Database (COD),
# http://www.crystallography.net/
#
# All data on this site have been placed in the public domain by the
# contributors.
#
data_1526564
loop_
_publ_author_name
'Kawamura, H.'
'Akahama, Y.'
'Shimomura, O.'
'Umemoto, S.'
'Takemura, K.'
'Ohishi, Y.'
_publ_section_title
;
 X-ray powder diffraction from solid deuterium
;
_journal_name_full               'Solid State Communications'
_journal_page_first              29
_journal_page_last               32
_journal_volume                  119
_journal_year                    2001
_chemical_formula_sum            D2
_chemical_name_systematic        D2
_space_group_IT_number           194
_symmetry_space_group_name_Hall  '-P 6c 2c'
_symmetry_space_group_name_H-M   'P 63/m m c'
_cell_angle_alpha                90
_cell_angle_beta                 90
_cell_angle_gamma                120
_cell_formula_units_Z            1
_cell_length_a                   2.015
_cell_length_b                   2.015
_cell_length_c                   3.237
_cell_volume                     11.382
_citation_journal_id_ASTM        SSCOA4
_cod_data_source_file            Kawamura_SSCOA4_2001_1943.cif
_cod_data_source_block           D2
_cod_original_cell_volume        11.38213
_cod_database_code               1526564
loop_
_symmetry_equiv_pos_as_xyz
x,y,z
x-y,x,z+1/2
-y,x-y,z
-x,-y,z+1/2
-x+y,-x,z
y,-x+y,z+1/2
-y,-x,-z+1/2
x-y,-y,-z
x,x-y,-z+1/2
y,x,-z
-x+y,y,-z+1/2
-x,-x+y,-z
-x,-y,-z
-x+y,-x,-z-1/2
y,-x+y,-z
x,y,-z-1/2
x-y,x,-z
-y,x-y,-z-1/2
y,x,z-1/2
-x+y,y,z
-x,-x+y,z-1/2
-y,-x,z
x-y,-y,z-1/2
x,x-y,z
loop_
_atom_site_label
_atom_site_type_symbol
_atom_site_fract_x
_atom_site_fract_y
_atom_site_fract_z
_atom_site_occupancy
_atom_site_U_iso_or_equiv
D1 D 0.3333 0.6667 0.25 1 0.0
