#------------------------------------------------------------------------------
#$Date: 2016-02-18 13:08:31 +0200 (Thu, 18 Feb 2016) $
#$Revision: 176725 $
#$URL: svn://www.crystallography.net/cod/cif/9/00/40/9004086.cif $
#------------------------------------------------------------------------------
#
# This file is available in the Crystallography Open Database (COD),
# http://www.crystallography.net/
#
# All data on this site have been placed in the public domain by the
# contributors.
#
data_9004086
loop_
_publ_author_name
'Rajamani V'
'Prewitt C T'
_publ_section_title
;
 Refinement of the structure of Co9S8
;
_journal_name_full               'The Canadian Mineralogist'
_journal_page_first              75
_journal_page_last               78
_journal_volume                  13
_journal_year                    1975
_chemical_formula_sum            'Co8.84 S8'
_chemical_name_mineral           'Cobalt pentlandite'
_space_group_IT_number           225
_symmetry_space_group_name_Hall  '-F 4 2 3'
_symmetry_space_group_name_H-M   'F m -3 m'
_cell_angle_alpha                90
_cell_angle_beta                 90
_cell_angle_gamma                90
_cell_length_a                   9.923
_cell_length_b                   9.923
_cell_length_c                   9.923
_cell_volume                     977.078
_cod_original_sg_symbol_H-M      'F m 3 m'
_cod_database_code               9004086
loop_
_symmetry_equiv_pos_as_xyz
x,y,z
x,1/2+y,1/2+z
1/2+x,y,1/2+z
1/2+x,1/2+y,z
z,-x,y
z,1/2-x,1/2+y
1/2+z,-x,1/2+y
1/2+z,1/2-x,y
-y,z,-x
-y,1/2+z,1/2-x
1/2-y,z,1/2-x
1/2-y,1/2+z,-x
x,-y,z
x,1/2-y,1/2+z
1/2+x,-y,1/2+z
1/2+x,1/2-y,z
-z,x,-y
-z,1/2+x,1/2-y
1/2-z,x,1/2-y
1/2-z,1/2+x,-y
y,-z,x
y,1/2-z,1/2+x
1/2+y,-z,1/2+x
1/2+y,1/2-z,x
-x,y,-z
-x,1/2+y,1/2-z
1/2-x,y,1/2-z
1/2-x,1/2+y,-z
x,-z,-y
x,1/2-z,1/2-y
1/2+x,-z,1/2-y
1/2+x,1/2-z,-y
-z,y,x
-z,1/2+y,1/2+x
1/2-z,y,1/2+x
1/2-z,1/2+y,x
y,-x,-z
y,1/2-x,1/2-z
1/2+y,-x,1/2-z
1/2+y,1/2-x,-z
-x,z,y
-x,1/2+z,1/2+y
1/2-x,z,1/2+y
1/2-x,1/2+z,y
z,-y,-x
z,1/2-y,1/2-x
1/2+z,-y,1/2-x
1/2+z,1/2-y,-x
-y,x,z
-y,1/2+x,1/2+z
1/2-y,x,1/2+z
1/2-y,1/2+x,z
x,z,y
x,1/2+z,1/2+y
1/2+x,z,1/2+y
1/2+x,1/2+z,y
-z,-y,-x
-z,1/2-y,1/2-x
1/2-z,-y,1/2-x
1/2-z,1/2-y,-x
y,x,z
y,1/2+x,1/2+z
1/2+y,x,1/2+z
1/2+y,1/2+x,z
-x,-z,-y
-x,1/2-z,1/2-y
1/2-x,-z,1/2-y
1/2-x,1/2-z,-y
z,y,x
z,1/2+y,1/2+x
1/2+z,y,1/2+x
1/2+z,1/2+y,x
-y,-x,-z
-y,1/2-x,1/2-z
1/2-y,-x,1/2-z
1/2-y,1/2-x,-z
z,x,-y
z,1/2+x,1/2-y
1/2+z,x,1/2-y
1/2+z,1/2+x,-y
-y,-z,x
-y,1/2-z,1/2+x
1/2-y,-z,1/2+x
1/2-y,1/2-z,x
x,y,-z
x,1/2+y,1/2-z
1/2+x,y,1/2-z
1/2+x,1/2+y,-z
-z,-x,y
-z,1/2-x,1/2+y
1/2-z,-x,1/2+y
1/2-z,1/2-x,y
y,z,-x
y,1/2+z,1/2-x
1/2+y,z,1/2-x
1/2+y,1/2+z,-x
-x,-y,z
-x,1/2-y,1/2+z
1/2-x,-y,1/2+z
1/2-x,1/2-y,z
-z,x,y
-z,1/2+x,1/2+y
1/2-z,x,1/2+y
1/2-z,1/2+x,y
y,-z,-x
y,1/2-z,1/2-x
1/2+y,-z,1/2-x
1/2+y,1/2-z,-x
-x,y,z
-x,1/2+y,1/2+z
1/2-x,y,1/2+z
1/2-x,1/2+y,z
z,-x,-y
z,1/2-x,1/2-y
1/2+z,-x,1/2-y
1/2+z,1/2-x,-y
-y,z,x
-y,1/2+z,1/2+x
1/2-y,z,1/2+x
1/2-y,1/2+z,x
x,-y,-z
x,1/2-y,1/2-z
1/2+x,-y,1/2-z
1/2+x,1/2-y,-z
-x,z,-y
-x,1/2+z,1/2-y
1/2-x,z,1/2-y
1/2-x,1/2+z,-y
z,-y,x
z,1/2-y,1/2+x
1/2+z,-y,1/2+x
1/2+z,1/2-y,x
-y,x,-z
-y,1/2+x,1/2-z
1/2-y,x,1/2-z
1/2-y,1/2+x,-z
x,-z,y
x,1/2-z,1/2+y
1/2+x,-z,1/2+y
1/2+x,1/2-z,y
-z,y,-x
-z,1/2+y,1/2-x
1/2-z,y,1/2-x
1/2-z,1/2+y,-x
y,-x,z
y,1/2-x,1/2+z
1/2+y,-x,1/2+z
1/2+y,1/2-x,z
-x,-z,y
-x,1/2-z,1/2+y
1/2-x,-z,1/2+y
1/2-x,1/2-z,y
z,y,-x
z,1/2+y,1/2-x
1/2+z,y,1/2-x
1/2+z,1/2+y,-x
-y,-x,z
-y,1/2-x,1/2+z
1/2-y,-x,1/2+z
1/2-y,1/2-x,z
x,z,-y
x,1/2+z,1/2-y
1/2+x,z,1/2-y
1/2+x,1/2+z,-y
-z,-y,x
-z,1/2-y,1/2+x
1/2-z,-y,1/2+x
1/2-z,1/2-y,x
y,x,-z
y,1/2+x,1/2-z
1/2+y,x,1/2-z
1/2+y,1/2+x,-z
-z,-x,-y
-z,1/2-x,1/2-y
1/2-z,-x,1/2-y
1/2-z,1/2-x,-y
y,z,x
y,1/2+z,1/2+x
1/2+y,z,1/2+x
1/2+y,1/2+z,x
-x,-y,-z
-x,1/2-y,1/2-z
1/2-x,-y,1/2-z
1/2-x,1/2-y,-z
z,x,y
z,1/2+x,1/2+y
1/2+z,x,1/2+y
1/2+z,1/2+x,y
-y,-z,-x
-y,1/2-z,1/2-x
1/2-y,-z,1/2-x
1/2-y,1/2-z,-x
loop_
_atom_site_aniso_label
_atom_site_aniso_U_11
_atom_site_aniso_U_22
_atom_site_aniso_U_33
_atom_site_aniso_U_12
_atom_site_aniso_U_13
_atom_site_aniso_U_23
CoT 0.00584 0.00584 0.00584 0.00030 0.00030 0.00030
S2 0.00369 0.00584 0.00584 0.00000 0.00000 0.00000
loop_
_atom_site_label
_atom_site_fract_x
_atom_site_fract_y
_atom_site_fract_z
_atom_site_occupancy
_atom_site_U_iso_or_equiv
CoM 0.50000 0.50000 0.50000 1.00000 0.00570
CoT 0.12623 0.12623 0.12623 0.98000 ?
S1 0.25000 0.25000 0.25000 1.00000 0.00646
S2 0.26230 0.00000 0.00000 1.00000 ?
