#------------------------------------------------------------------------------
#$Date: 2016-02-14 16:26:36 +0200 (Sun, 14 Feb 2016) $
#$Revision: 176435 $
#$URL: svn://www.crystallography.net/cod/cif/1/51/10/1511048.cif $
#------------------------------------------------------------------------------
#
# This file is available in the Crystallography Open Database (COD),
# http://www.crystallography.net/
#
# All data on this site have been placed in the public domain by the
# contributors.
#
data_1511048
loop_
_publ_author_name
'Lipscomb, W.N.'
'Atoji, M.'
_publ_section_title
;
 B-Cl Distance in Boron Trichloride
;
_journal_name_full               'Journal of Chemical Physics'
_journal_page_first              195
_journal_page_last               195
_journal_paper_doi               10.1063/1.1743667
_journal_volume                  27
_journal_year                    1957
_chemical_formula_sum            'B Cl3'
_chemical_name_systematic        'B Cl3'
_space_group_IT_number           176
_symmetry_space_group_name_Hall  '-P 6c'
_symmetry_space_group_name_H-M   'P 63/m'
_cell_angle_alpha                90
_cell_angle_beta                 90
_cell_angle_gamma                120
_cell_formula_units_Z            2
_cell_length_a                   6.08
_cell_length_b                   6.08
_cell_length_c                   6.55
_cell_volume                     209.691
_citation_journal_id_ASTM        JCPSA6
_cod_data_source_file            boron0-1_136.cif
_cod_data_source_block           B1Cl3
_cod_original_cell_volume        209.6907
_cod_original_formula_sum        'B1 Cl3'
_cod_database_code               1511048
loop_
_symmetry_equiv_pos_as_xyz
x,y,z
x-y,x,z+1/2
-y,x-y,z
-x,-y,z+1/2
-x+y,-x,z
y,-x+y,z+1/2
-x,-y,-z
-x+y,-x,-z-1/2
y,-x+y,-z
x,y,-z-1/2
x-y,x,-z
-y,x-y,-z-1/2
loop_
_atom_site_label
_atom_site_type_symbol
_atom_site_fract_x
_atom_site_fract_y
_atom_site_fract_z
_atom_site_occupancy
_atom_site_U_iso_or_equiv
Cl1 Cl-1 0.0455 0.3763 0.25 1 0.0
B1 B+3 0.3333 0.6667 0.25 1 0.0
