#------------------------------------------------------------------------------
#$Date: 2016-02-14 16:26:36 +0200 (Sun, 14 Feb 2016) $
#$Revision: 176435 $
#$URL: svn://www.crystallography.net/cod/cif/1/51/15/1511564.cif $
#------------------------------------------------------------------------------
#
# This file is available in the Crystallography Open Database (COD),
# http://www.crystallography.net/
#
# All data on this site have been placed in the public domain by the
# contributors.
#
data_1511564
loop_
_publ_author_name
'Merisalo, M.J.'
'Korsukova, M.M.'
'Blomberg, M.K.'
'Gurin, V.N.'
_publ_section_title
;
 Single-crystal X-ray diffraction study of Nd B6, Eu B6 and Yb B6
;
_journal_name_full               'Journal of Alloys Compd.'
_journal_page_first              123
_journal_page_last               127
_journal_paper_doi               10.1016/0925-8388(94)01313-7
_journal_volume                  217
_journal_year                    1995
_chemical_formula_sum            'B5.862 Yb'
_chemical_name_systematic        'Yb B5.862'
_space_group_IT_number           221
_symmetry_space_group_name_Hall  '-P 4 2 3'
_symmetry_space_group_name_H-M   'P m -3 m'
_cell_angle_alpha                90
_cell_angle_beta                 90
_cell_angle_gamma                90
_cell_formula_units_Z            1
_cell_length_a                   4.1479
_cell_length_b                   4.1479
_cell_length_c                   4.1479
_cell_volume                     71.365
_citation_journal_id_ASTM        JALCEU
_cod_data_source_file            boron4-x_203.cif
_cod_data_source_block           B5.862Yb1
_cod_original_cell_volume        71.36494
_cod_original_formula_sum        'B5.862 Yb1'
_cod_database_code               1511564
loop_
_symmetry_equiv_pos_as_xyz
x,y,z
-y,x,z
-x,-y,z
y,-x,z
x,-y,-z
y,x,-z
-x,y,-z
-y,-x,-z
z,x,y
-x,z,y
-z,-x,y
x,-z,y
z,-x,-y
x,z,-y
-z,x,-y
-x,-z,-y
y,z,x
y,-z,-x
z,y,-x
-y,z,-x
-z,-y,-x
-y,-z,x
z,-y,x
-z,y,x
-x,-y,-z
y,-x,-z
x,y,-z
-y,x,-z
-x,y,z
-y,-x,z
x,-y,z
y,x,z
-z,-x,-y
x,-z,-y
z,x,-y
-x,z,-y
-z,x,y
-x,-z,y
z,-x,y
x,z,y
-y,-z,-x
-y,z,x
-z,-y,x
y,-z,x
z,y,x
y,z,-x
-z,y,-x
z,-y,-x
loop_
_atom_site_label
_atom_site_type_symbol
_atom_site_fract_x
_atom_site_fract_y
_atom_site_fract_z
_atom_site_occupancy
_atom_site_U_iso_or_equiv
B1 B 0.2012 0.5 0.5 0.977 0.0
Yb1 Yb+2 0 0 0 1 0.0
