#------------------------------------------------------------------------------
#$Date: 2016-02-18 17:37:37 +0200 (Thu, 18 Feb 2016) $
#$Revision: 176729 $
#$URL: svn://www.crystallography.net/cod/cif/1/51/13/1511390.cif $
#------------------------------------------------------------------------------
#
# This file is available in the Crystallography Open Database (COD),
# http://www.crystallography.net/
#
# All data on this site have been placed in the public domain by the
# contributors.
#
data_1511390
loop_
_publ_author_name
'Lundstroem, T.'
'Rosenberg, I.'
_publ_section_title
;
 The crystal structure of the molybdenum boride Mo1-x B3
;
_journal_name_full               'Journal of Solid State Chemistry'
_journal_page_first              299
_journal_page_last               305
_journal_paper_doi               10.1016/0022-4596(73)90194-1
_journal_volume                  6
_journal_year                    1973
_chemical_formula_sum            'B12 Mo3.46'
_chemical_name_systematic        'Mo3.46 B12'
_space_group_IT_number           194
_symmetry_space_group_name_Hall  '-P 6c 2c'
_symmetry_space_group_name_H-M   'P 63/m m c'
_cell_angle_alpha                90
_cell_angle_beta                 90
_cell_angle_gamma                120
_cell_formula_units_Z            1
_cell_length_a                   5.2033
_cell_length_b                   5.2033
_cell_length_c                   6.3498
_cell_volume                     148.884
_citation_journal_id_ASTM        JSSCBI
_cod_data_source_file            boron0-1_533.cif
_cod_data_source_block           B12Mo3.46
_cod_original_cell_volume        148.8841
_cod_database_code               1511390
loop_
_symmetry_equiv_pos_as_xyz
x,y,z
x-y,x,z+1/2
-y,x-y,z
-x,-y,z+1/2
-x+y,-x,z
y,-x+y,z+1/2
-y,-x,-z+1/2
x-y,-y,-z
x,x-y,-z+1/2
y,x,-z
-x+y,y,-z+1/2
-x,-x+y,-z
-x,-y,-z
-x+y,-x,-z-1/2
y,-x+y,-z
x,y,-z-1/2
x-y,x,-z
-y,x-y,-z-1/2
y,x,z-1/2
-x+y,y,z
-x,-x+y,z-1/2
-y,-x,z
x-y,-y,z-1/2
x,x-y,z
loop_
_atom_site_label
_atom_site_type_symbol
_atom_site_fract_x
_atom_site_fract_y
_atom_site_fract_z
_atom_site_occupancy
_atom_site_U_iso_or_equiv
Mo1 Mo 0 0 0.25 0.73 0.0
B1 B 0.333 0 0 1 0.0
Mo2 Mo 0.3333 0.6667 0.25 1 0.0
