#------------------------------------------------------------------------------
#$Date: 2016-02-16 22:30:59 +0200 (Tue, 16 Feb 2016) $
#$Revision: 176467 $
#$URL: svn://www.crystallography.net/cod/cif/4/11/39/4113927.cif $
#------------------------------------------------------------------------------
#
# This file is available in the Crystallography Open Database (COD),
# http://www.crystallography.net/
#
# All data on this site have been placed in the public domain by the
# contributors.
#
data_4113927
loop_
_publ_author_name
'Patrick M. Woodward'
'Emmanuelle Suard'
'Pavel Karen'
_publ_section_title
;
 Structural Tuning of Charge, Orbital, and Spin Ordering in Double-Cell
 Perovskite Series between NdBaFe2O5 and HoBaFe2O5
;
_journal_name_full               'Journal of the American Chemical Society'
_journal_page_first              8889
_journal_page_last               8899
_journal_paper_doi               10.1021/ja034813+
_journal_volume                  125
_journal_year                    2003
_chemical_formula_sum            'Fe Nd'
_space_group_IT_number           26
_symmetry_cell_setting           orthorhombic
_symmetry_space_group_name_Hall  'P -2a 2a'
_symmetry_space_group_name_H-M   'P 21 m a'
_cell_angle_alpha                90.0
_cell_angle_beta                 90.0
_cell_angle_gamma                90.0
_cell_formula_units_Z            8
_cell_length_a                   7.9980(6)
_cell_length_b                   7.8330(11)
_cell_length_c                   15.2643(11)
_cell_volume                     956.28(17)
_pd_block_id                     |PHASE_2||
_pd_phase_name                   'YBaFeCuO5 Type Magnetic Structure'
_cod_data_source_file            ja0348132Bsi20030304_041321_10.cif
_cod_data_source_block           ND_2K_NDMAG_phase_2
_cod_original_formula_sum        'Nd Fe'
_cod_database_code               4113927
loop_
_symmetry_equiv_pos_as_xyz
+x,+y,+z
+x+1/2,-y,-z
+x,-y,+z
+x+1/2,+y,-z
loop_
_atom_site_label
_atom_site_fract_x
_atom_site_fract_y
_atom_site_fract_z
_atom_site_occupancy
_atom_site_thermal_displace_type
_atom_site_U_iso_or_equiv
_atom_site_symmetry_multiplicity
Fe(1a) 0.26643 0.25 0.1205 1.0 Uiso 0.00252(27) 4
Fe(2a) 0.75561 0.25 0.1325 1.0 Uiso 0.00252(27) 4
Fe(2b) 0.2444 0.25 0.36745 1.0 Uiso 0.00252(27) 4
Fe(1b) 0.7336 0.25 0.3795 1.0 Uiso 0.00252(27) 4
Nd(1a) 0.0116 0.0 0.2465 1.0 Uiso 0.0010(4) 2
Nd(1b) 0.5116 0.0 0.2508 1.0 Uiso 0.0010(4) 2
Nd(1c) 0.0116 0.5 0.2465 1.0 Uiso 0.0010(4) 2
Nd(1d) 0.5116 0.5 0.2508 1.0 Uiso 0.0010(4) 2
loop_
_atom_type_symbol
_atom_type_number_in_cell
ND 8.0
FE 8.0
FE 8.0
