#------------------------------------------------------------------------------
#$Date: 2015-10-10 01:34:19 +0300 (Sat, 10 Oct 2015) $
#$Revision: 163679 $
#$URL: svn://www.crystallography.net/cod/cif/1/53/60/1536086.cif $
#------------------------------------------------------------------------------
#
# This file is available in the Crystallography Open Database (COD),
# http://www.crystallography.net/
#
# All data on this site have been placed in the public domain by the
# contributors.
#
data_1536086
loop_
_publ_author_name
'Viklund, P.'
'Lidin, S.'
_publ_section_title
;
 Variations of the Fe Ga3 structure type in the systems Co In3-x Znx and
 Co Ga3-x Znx.
;
_journal_name_full               'Journal of Solid State Chemistry'
_journal_page_first              100
_journal_page_last               110
_journal_volume                  165
_journal_year                    2002
_chemical_formula_sum            'Co4 In12'
_chemical_name_systematic        'Co4 In12'
_space_group_IT_number           136
_symmetry_space_group_name_Hall  '-P 4n 2n'
_symmetry_space_group_name_H-M   'P 42/m n m'
_cell_angle_alpha                90
_cell_angle_beta                 90
_cell_angle_gamma                90
_cell_formula_units_Z            1
_cell_length_a                   6.8343
_cell_length_b                   6.8343
_cell_length_c                   7.0922
_cell_volume                     331.260
_citation_journal_id_ASTM        JSSCBI
_cod_data_source_file            Viklund_JSSCBI_2002_355.cif
_cod_data_source_block           Co4In12
_cod_original_cell_volume        331.26
_cod_database_code               1536086
loop_
_symmetry_equiv_pos_as_xyz
x,y,z
-y+1/2,x+1/2,z+1/2
-x,-y,z
y+1/2,-x+1/2,z+1/2
x+1/2,-y+1/2,-z+1/2
y,x,-z
-x+1/2,y+1/2,-z+1/2
-y,-x,-z
-x,-y,-z
y-1/2,-x-1/2,-z-1/2
x,y,-z
-y-1/2,x-1/2,-z-1/2
-x-1/2,y-1/2,z-1/2
-y,-x,z
x-1/2,-y-1/2,z-1/2
y,x,z
loop_
_atom_site_label
_atom_site_type_symbol
_atom_site_fract_x
_atom_site_fract_y
_atom_site_fract_z
_atom_site_occupancy
_atom_site_U_iso_or_equiv
In1 In 0 0.5 0 1 0.0
Co1 Co 0.34999 0.34999 0 1 0.0
In2 In 0.15459 1.15459 0.25514 1 0.0
