#------------------------------------------------------------------------------
#$Date: 2016-02-13 21:28:24 +0200 (Sat, 13 Feb 2016) $
#$Revision: 176429 $
#$URL: svn://www.crystallography.net/cod/cif/1/53/67/1536704.cif $
#------------------------------------------------------------------------------
#
# This file is available in the Crystallography Open Database (COD),
# http://www.crystallography.net/
#
# All data on this site have been placed in the public domain by the
# contributors.
#
data_1536704
loop_
_publ_author_name
'Klemm, W.'
'Krose, E.'
_publ_section_title
;
 Die Kristallstrukturen von Sc Cl3, Ti Cl3 und V Cl3
;
_journal_name_full
'Zeitschrift fuer Anorganische und Allgemeine Chemie'
_journal_page_first              218
_journal_page_last               225
_journal_volume                  253
_journal_year                    1947
_chemical_formula_sum            'Cl3 Ti'
_chemical_name_systematic        'Ti Cl3'
_space_group_IT_number           148
_symmetry_space_group_name_Hall  '-R 3'
_symmetry_space_group_name_H-M   'R -3 :H'
_cell_angle_alpha                90
_cell_angle_beta                 90
_cell_angle_gamma                120
_cell_formula_units_Z            6
_cell_length_a                   6.121
_cell_length_b                   6.121
_cell_length_c                   17.5
_cell_volume                     567.824
_citation_journal_id_ASTM        ZAACAB
_cod_data_source_file            Klemm_ZAACAB_1947_566.cif
_cod_data_source_block           Cl3Ti1
_cod_original_cell_volume        567.8235
_cod_original_formula_sum        'Cl3 Ti1'
_cod_database_code               1536704
loop_
_symmetry_equiv_pos_as_xyz
x,y,z
-y,x-y,z
-x+y,-x,z
-x,-y,-z
y,-x+y,-z
x-y,x,-z
x+2/3,y+1/3,z+1/3
-y+2/3,x-y+1/3,z+1/3
-x+y+2/3,-x+1/3,z+1/3
-x+2/3,-y+1/3,-z+1/3
y+2/3,-x+y+1/3,-z+1/3
x-y+2/3,x+1/3,-z+1/3
x+1/3,y+2/3,z+2/3
-y+1/3,x-y+2/3,z+2/3
-x+y+1/3,-x+2/3,z+2/3
-x+1/3,-y+2/3,-z+2/3
y+1/3,-x+y+2/3,-z+2/3
x-y+1/3,x+2/3,-z+2/3
loop_
_atom_site_label
_atom_site_type_symbol
_atom_site_fract_x
_atom_site_fract_y
_atom_site_fract_z
_atom_site_occupancy
_atom_site_U_iso_or_equiv
Cl1 Cl-1 0.3333 0 0.079 1 0.0
Ti1 Ti+3 0 0 0.3333 1 0.0
