#------------------------------------------------------------------------------
#$Date: 2015-10-10 02:33:52 +0300 (Sat, 10 Oct 2015) $
#$Revision: 163852 $
#$URL: svn://www.crystallography.net/cod/cif/1/53/62/1536218.cif $
#------------------------------------------------------------------------------
#
# This file is available in the Crystallography Open Database (COD),
# http://www.crystallography.net/
#
# All data on this site have been placed in the public domain by the
# contributors.
#
data_1536218
loop_
_publ_author_name
'Daams, J.L.C.'
'Villars, P.'
_publ_section_title
;
 Atomic environment classification of the rhombohedral "intermetallic"
 structure types
;
_journal_name_full               'Journal of Alloys Compd.'
_journal_page_first              11
_journal_page_last               16
_journal_volume                  201
_journal_year                    1993
_chemical_formula_sum            'Cu9 S5'
_chemical_name_systematic        'Cu9 S5'
_space_group_IT_number           166
_symmetry_space_group_name_Hall  '-R 3 2"'
_symmetry_space_group_name_H-M   'R -3 m :H'
_cell_angle_alpha                90
_cell_angle_beta                 90
_cell_angle_gamma                120
_cell_formula_units_Z            3
_cell_length_a                   3.93
_cell_length_b                   3.93
_cell_length_c                   48.14
_cell_volume                     643.905
_citation_journal_id_ASTM        JALCEU
_cod_data_source_file            Daams_JALCEU_1993_734.cif
_cod_data_source_block           Cu9S5
_cod_database_code               1536218
loop_
_symmetry_equiv_pos_as_xyz
x,y,z
-y,x-y,z
-x+y,-x,z
y,x,-z
-x,-x+y,-z
x-y,-y,-z
-x,-y,-z
y,-x+y,-z
x-y,x,-z
-y,-x,z
x,x-y,z
-x+y,y,z
x+2/3,y+1/3,z+1/3
-y+2/3,x-y+1/3,z+1/3
-x+y+2/3,-x+1/3,z+1/3
y+2/3,x+1/3,-z+1/3
-x+2/3,-x+y+1/3,-z+1/3
x-y+2/3,-y+1/3,-z+1/3
-x+2/3,-y+1/3,-z+1/3
y+2/3,-x+y+1/3,-z+1/3
x-y+2/3,x+1/3,-z+1/3
-y+2/3,-x+1/3,z+1/3
x+2/3,x-y+1/3,z+1/3
-x+y+2/3,y+1/3,z+1/3
x+1/3,y+2/3,z+2/3
-y+1/3,x-y+2/3,z+2/3
-x+y+1/3,-x+2/3,z+2/3
y+1/3,x+2/3,-z+2/3
-x+1/3,-x+y+2/3,-z+2/3
x-y+1/3,-y+2/3,-z+2/3
-x+1/3,-y+2/3,-z+2/3
y+1/3,-x+y+2/3,-z+2/3
x-y+1/3,x+2/3,-z+2/3
-y+1/3,-x+2/3,z+2/3
x+1/3,x-y+2/3,z+2/3
-x+y+1/3,y+2/3,z+2/3
loop_
_atom_site_label
_atom_site_type_symbol
_atom_site_fract_x
_atom_site_fract_y
_atom_site_fract_z
_atom_site_occupancy
_atom_site_U_iso_or_equiv
S1 S-2 0 0 0 1 0.0
Cu2 Cu+1 0 0 0.06 1 0.0
S2 S-2 0 0 0.2 1 0.0
Cu5 Cu+1 0 0 0.35 1 0.0
Cu3 Cu+1 0 0 0.133 1 0.0
Cu1 Cu+1 0 0 0.5 1 0.0
Cu4 Cu+1 0 0 0.25 1 0.0
S3 S-2 0 0 0.4 1 0.0
