#------------------------------------------------------------------------------
#$Date: 2015-10-10 02:28:03 +0300 (Sat, 10 Oct 2015) $
#$Revision: 163821 $
#$URL: svn://www.crystallography.net/cod/cif/1/53/61/1536193.cif $
#------------------------------------------------------------------------------
#
# This file is available in the Crystallography Open Database (COD),
# http://www.crystallography.net/
#
# All data on this site have been placed in the public domain by the
# contributors.
#
data_1536193
loop_
_publ_author_name
'Nylen, J.'
'Haeussermann, U.'
'Mosel, B.D.'
'Garcia-Garcia, F.J.'
'Poettgen, R.'
_publ_section_title
;
 Structural relationships, phase stability and bonding of compounds Pd
 Sn(n) (n= 2,3,4)
;
_journal_name_full               'Solid State Sciences'
_journal_page_first              147
_journal_page_last               155
_journal_volume                  6
_journal_year                    2004
_chemical_formula_sum            'Pd8 Sn24'
_chemical_name_systematic        'Pd8 Sn24'
_space_group_IT_number           64
_symmetry_space_group_name_Hall  '-C 2ac 2'
_symmetry_space_group_name_H-M   'C m c a'
_cell_angle_alpha                90
_cell_angle_beta                 90
_cell_angle_gamma                90
_cell_formula_units_Z            1
_cell_length_a                   17.147
_cell_length_b                   6.458
_cell_length_c                   6.488
_cell_volume                     718.451
_citation_journal_id_ASTM        SSSCFJ
_cod_data_source_file            Nylen_SSSCFJ_2004_1120.cif
_cod_data_source_block           Pd8Sn24
_cod_original_cell_volume        718.4508
_cod_database_code               1536193
loop_
_symmetry_equiv_pos_as_xyz
x,y,z
-x+1/2,-y,z+1/2
x,-y,-z
-x+1/2,y,-z+1/2
-x,-y,-z
x-1/2,y,-z-1/2
-x,y,z
x-1/2,-y,z-1/2
x+1/2,y+1/2,z
-x+1,-y+1/2,z+1/2
x+1/2,-y+1/2,-z
-x+1,y+1/2,-z+1/2
-x+1/2,-y+1/2,-z
x,y+1/2,-z-1/2
-x+1/2,y+1/2,z
x,-y+1/2,z-1/2
loop_
_atom_site_label
_atom_site_type_symbol
_atom_site_fract_x
_atom_site_fract_y
_atom_site_fract_z
_atom_site_occupancy
_atom_site_U_iso_or_equiv
Sn2 Sn 0.16857 0.32955 0.1693 1 0.0
Pd1 Pd 0.08536 0 0 1 0.0
Sn1 Sn 0 0.16013 0.3391 1 0.0
