#------------------------------------------------------------------------------
#$Date: 2016-02-13 21:28:24 +0200 (Sat, 13 Feb 2016) $
#$Revision: 176429 $
#$URL: svn://www.crystallography.net/cod/cif/1/53/35/1533527.cif $
#------------------------------------------------------------------------------
#
# This file is available in the Crystallography Open Database (COD),
# http://www.crystallography.net/
#
# All data on this site have been placed in the public domain by the
# contributors.
#
data_1533527
loop_
_publ_author_name
'Takizawa, H.'
'Uheda, K.'
'Yamashita, T.'
'Endo, T.'
_publ_section_title
;
 High-pressure synthesis of ferromagnetic Mn3 Ge with the (Cu3 Au)- type
 structure
;
_journal_name_full               'Journal of Physics: Condensed Matter'
_journal_page_first              11147
_journal_page_last               11150
_journal_volume                  14
_journal_year                    2002
_chemical_formula_sum            'Ge Mn3'
_chemical_name_systematic        'Mn3 Ge'
_space_group_IT_number           221
_symmetry_space_group_name_Hall  '-P 4 2 3'
_symmetry_space_group_name_H-M   'P m -3 m'
_cell_angle_alpha                90
_cell_angle_beta                 90
_cell_angle_gamma                90
_cell_formula_units_Z            1
_cell_length_a                   3.8019
_cell_length_b                   3.8019
_cell_length_c                   3.8019
_cell_volume                     54.954
_citation_journal_id_ASTM        JCOMEL
_cod_data_source_file            Takizawa_JCOMEL_2002_362.cif
_cod_data_source_block           Ge1Mn3
_cod_original_cell_volume        54.95435
_cod_original_formula_sum        'Ge1 Mn3'
_cod_database_code               1533527
loop_
_symmetry_equiv_pos_as_xyz
x,y,z
-y,x,z
-x,-y,z
y,-x,z
x,-y,-z
y,x,-z
-x,y,-z
-y,-x,-z
z,x,y
-x,z,y
-z,-x,y
x,-z,y
z,-x,-y
x,z,-y
-z,x,-y
-x,-z,-y
y,z,x
y,-z,-x
z,y,-x
-y,z,-x
-z,-y,-x
-y,-z,x
z,-y,x
-z,y,x
-x,-y,-z
y,-x,-z
x,y,-z
-y,x,-z
-x,y,z
-y,-x,z
x,-y,z
y,x,z
-z,-x,-y
x,-z,-y
z,x,-y
-x,z,-y
-z,x,y
-x,-z,y
z,-x,y
x,z,y
-y,-z,-x
-y,z,x
-z,-y,x
y,-z,x
z,y,x
y,z,-x
-z,y,-x
z,-y,-x
loop_
_atom_site_label
_atom_site_type_symbol
_atom_site_fract_x
_atom_site_fract_y
_atom_site_fract_z
_atom_site_occupancy
_atom_site_U_iso_or_equiv
Ge1 Ge 0 0 0 1 0.0
Mn1 Mn 0 0.5 0.5 1 0.0
