#------------------------------------------------------------------------------
#$Date: 2015-10-05 12:54:12 +0300 (Mon, 05 Oct 2015) $
#$Revision: 159853 $
#$URL: svn://www.crystallography.net/cod/cif/1/53/35/1533596.cif $
#------------------------------------------------------------------------------
#
# This file is available in the Crystallography Open Database (COD),
# http://www.crystallography.net/
#
# All data on this site have been placed in the public domain by the
# contributors.
#
data_1533596
loop_
_publ_author_name
'Babizhet'sky, V.S.'
'Roger, J.'
'Bauer, J.'
'Deputier, S.'
'Guerin, R.'
'Jardin, R.'
_publ_section_title
;
 Solid state phase equilibria in the Gd - Si - B system at 1270 K
;
_journal_name_full               'Journal of Solid State Chemistry'
_journal_page_first              415
_journal_page_last               424
_journal_volume                  177
_journal_year                    2004
_chemical_formula_sum            'Gd5 Si3'
_chemical_name_systematic        'Gd5 Si3'
_space_group_IT_number           193
_symmetry_space_group_name_Hall  '-P 6c 2'
_symmetry_space_group_name_H-M   'P 63/m c m'
_cell_angle_alpha                90
_cell_angle_beta                 90
_cell_angle_gamma                120
_cell_formula_units_Z            2
_cell_length_a                   8.5133
_cell_length_b                   8.5133
_cell_length_c                   6.4206
_cell_volume                     402.997
_citation_journal_id_ASTM        JSSCBI
_cod_data_source_file            Babizhetsky_JSSCBI_2004_1840.cif
_cod_data_source_block           Gd5Si3
_cod_original_cell_volume        402.9973
_cod_database_code               1533596
loop_
_symmetry_equiv_pos_as_xyz
x,y,z
x-y,x,z+1/2
-y,x-y,z
-x,-y,z+1/2
-x+y,-x,z
y,-x+y,z+1/2
-y,-x,-z
x-y,-y,-z+1/2
x,x-y,-z
y,x,-z+1/2
-x+y,y,-z
-x,-x+y,-z+1/2
-x,-y,-z
-x+y,-x,-z-1/2
y,-x+y,-z
x,y,-z-1/2
x-y,x,-z
-y,x-y,-z-1/2
y,x,z
-x+y,y,z-1/2
-x,-x+y,z
-y,-x,z-1/2
x-y,-y,z
x,x-y,z-1/2
loop_
_atom_site_label
_atom_site_type_symbol
_atom_site_fract_x
_atom_site_fract_y
_atom_site_fract_z
_atom_site_occupancy
_atom_site_U_iso_or_equiv
Si1 Si 0.6044 0 0.25 1 0.0
Gd1 Gd 0.3333 0.6667 0 1 0.0
Gd2 Gd 0.2424 0 0.25 1 0.0
