#------------------------------------------------------------------------------
#$Date: 2015-10-05 12:47:21 +0300 (Mon, 05 Oct 2015) $
#$Revision: 159847 $
#$URL: svn://www.crystallography.net/cod/cif/1/53/35/1533591.cif $
#------------------------------------------------------------------------------
#
# This file is available in the Crystallography Open Database (COD),
# http://www.crystallography.net/
#
# All data on this site have been placed in the public domain by the
# contributors.
#
data_1533591
loop_
_publ_author_name
'Gulay, L.D.'
'Olekseyuk, I.D.'
_publ_section_title
;
 Crystal structures of the compounds Ni3 Te2, Ni3-d Te2 (d = 0.12) and
 Ni1.29 Te
;
_journal_name_full               'Journal of Alloys Compd.'
_journal_page_first              131
_journal_page_last               138
_journal_volume                  376
_journal_year                    2004
_chemical_formula_sum            'Ni3 Te2'
_chemical_name_systematic        'Ni3 Te2'
_space_group_IT_number           11
_symmetry_space_group_name_Hall  '-P 2yb'
_symmetry_space_group_name_H-M   'P 1 21/m 1'
_cell_angle_alpha                90
_cell_angle_beta                 91.159
_cell_angle_gamma                90
_cell_formula_units_Z            2
_cell_length_a                   7.5382
_cell_length_b                   3.7934
_cell_length_c                   6.0883
_cell_volume                     174.062
_citation_journal_id_ASTM        JALCEU
_cod_data_source_file            Gulay_JALCEU_2004_1528.cif
_cod_data_source_block           Ni3Te2
_cod_original_cell_volume        174.0618
_cod_database_code               1533591
loop_
_symmetry_equiv_pos_as_xyz
x,y,z
-x,y+1/2,-z
-x,-y,-z
x,-y-1/2,z
loop_
_atom_site_label
_atom_site_type_symbol
_atom_site_fract_x
_atom_site_fract_y
_atom_site_fract_z
_atom_site_occupancy
_atom_site_U_iso_or_equiv
Te2 Te 0.6212 0.25 0.7126 1 0.0
Ni1 Ni 0.633 0.25 0.298 1 0.0
Te1 Te 0.1181 0.25 0.7158 1 0.0
Ni3 Ni 0.873 0.25 0.992 1 0.0
Ni2 Ni 0.373 0.25 0.007 1 0.0
