#------------------------------------------------------------------------------
#$Date: 2016-02-13 21:28:24 +0200 (Sat, 13 Feb 2016) $
#$Revision: 176429 $
#$URL: svn://www.crystallography.net/cod/cif/1/53/37/1533757.cif $
#------------------------------------------------------------------------------
#
# This file is available in the Crystallography Open Database (COD),
# http://www.crystallography.net/
#
# All data on this site have been placed in the public domain by the
# contributors.
#
data_1533757
loop_
_publ_author_name
'Bertini, L.'
'Platzek, D.'
'Stiewe, C.'
'Williams, S.'
'Muhammed, M.'
'Toprak, M.'
'Mrotzek, A.'
'Gatti, C.'
'Mueller, E.'
'Zhang Yu'
'Rowe, M.'
_publ_section_title
;
 Nanostructured Co1-x Nix Sb3 skutterudites: synthesis, thermoelectric
 properties and theoretical modelling
;
_journal_name_full               'Journal of Applied Physics'
_journal_page_first              438
_journal_page_last               447
_journal_volume                  93
_journal_year                    2003
_chemical_formula_sum            'Co Sb3'
_chemical_name_systematic        'Co Sb3'
_space_group_IT_number           204
_symmetry_space_group_name_Hall  '-I 2 2 3'
_symmetry_space_group_name_H-M   'I m -3'
_cell_angle_alpha                90
_cell_angle_beta                 90
_cell_angle_gamma                90
_cell_formula_units_Z            8
_cell_length_a                   9.118
_cell_length_b                   9.118
_cell_length_c                   9.118
_cell_volume                     758.052
_citation_journal_id_ASTM        JAPIAU
_cod_data_source_file            Bertini_JAPIAU_2003_353.cif
_cod_data_source_block           Co1Sb3
_cod_original_cell_volume        758.0516
_cod_original_formula_sum        'Co1 Sb3'
_cod_database_code               1533757
loop_
_symmetry_equiv_pos_as_xyz
x,y,z
-x,-y,z
x,-y,-z
-x,y,-z
z,x,y
-z,-x,y
z,-x,-y
-z,x,-y
y,z,x
y,-z,-x
-y,z,-x
-y,-z,x
-x,-y,-z
x,y,-z
-x,y,z
x,-y,z
-z,-x,-y
z,x,-y
-z,x,y
z,-x,y
-y,-z,-x
-y,z,x
y,-z,x
y,z,-x
x+1/2,y+1/2,z+1/2
-x+1/2,-y+1/2,z+1/2
x+1/2,-y+1/2,-z+1/2
-x+1/2,y+1/2,-z+1/2
z+1/2,x+1/2,y+1/2
-z+1/2,-x+1/2,y+1/2
z+1/2,-x+1/2,-y+1/2
-z+1/2,x+1/2,-y+1/2
y+1/2,z+1/2,x+1/2
y+1/2,-z+1/2,-x+1/2
-y+1/2,z+1/2,-x+1/2
-y+1/2,-z+1/2,x+1/2
-x+1/2,-y+1/2,-z+1/2
x+1/2,y+1/2,-z+1/2
-x+1/2,y+1/2,z+1/2
x+1/2,-y+1/2,z+1/2
-z+1/2,-x+1/2,-y+1/2
z+1/2,x+1/2,-y+1/2
-z+1/2,x+1/2,y+1/2
z+1/2,-x+1/2,y+1/2
-y+1/2,-z+1/2,-x+1/2
-y+1/2,z+1/2,x+1/2
y+1/2,-z+1/2,x+1/2
y+1/2,z+1/2,-x+1/2
loop_
_atom_site_label
_atom_site_type_symbol
_atom_site_fract_x
_atom_site_fract_y
_atom_site_fract_z
_atom_site_occupancy
_atom_site_U_iso_or_equiv
Sb1 Sb 0 0.332 0.1572 1 0.0
Co1 Co 0.25 0.25 0.25 1 0.0
