#------------------------------------------------------------------------------
#$Date: 2015-10-05 15:53:29 +0300 (Mon, 05 Oct 2015) $
#$Revision: 160243 $
#$URL: svn://www.crystallography.net/cod/cif/1/53/39/1533952.cif $
#------------------------------------------------------------------------------
#
# This file is available in the Crystallography Open Database (COD),
# http://www.crystallography.net/
#
# All data on this site have been placed in the public domain by the
# contributors.
#
data_1533952
loop_
_publ_author_name
'Pani, M.'
'Palenzona, A.'
_publ_section_title
;
 The phase diagram of the Yb - Ge system
;
_journal_name_full               'Journal of Alloys Compd.'
_journal_page_first              151
_journal_page_last               161
_journal_volume                  360
_journal_year                    2003
_chemical_formula_sum            'Ge3 Yb5'
_chemical_name_systematic        'Yb5 Ge3'
_space_group_IT_number           193
_symmetry_space_group_name_Hall  '-P 6c 2'
_symmetry_space_group_name_H-M   'P 63/m c m'
_cell_angle_alpha                90
_cell_angle_beta                 90
_cell_angle_gamma                120
_cell_formula_units_Z            2
_cell_length_a                   8.413
_cell_length_b                   8.413
_cell_length_c                   6.474
_cell_volume                     396.831
_citation_journal_id_ASTM        JALCEU
_cod_data_source_file            Pani_JALCEU_2003_73.cif
_cod_data_source_block           Ge3Yb5
_cod_original_cell_volume        396.8306
_cod_database_code               1533952
loop_
_symmetry_equiv_pos_as_xyz
x,y,z
x-y,x,z+1/2
-y,x-y,z
-x,-y,z+1/2
-x+y,-x,z
y,-x+y,z+1/2
-y,-x,-z
x-y,-y,-z+1/2
x,x-y,-z
y,x,-z+1/2
-x+y,y,-z
-x,-x+y,-z+1/2
-x,-y,-z
-x+y,-x,-z-1/2
y,-x+y,-z
x,y,-z-1/2
x-y,x,-z
-y,x-y,-z-1/2
y,x,z
-x+y,y,z-1/2
-x,-x+y,z
-y,-x,z-1/2
x-y,-y,z
x,x-y,z-1/2
loop_
_atom_site_label
_atom_site_type_symbol
_atom_site_fract_x
_atom_site_fract_y
_atom_site_fract_z
_atom_site_occupancy
_atom_site_U_iso_or_equiv
Ge1 Ge 0.6073 0 0.25 1 0.0
Yb2 Yb 0.3333 0.6667 0 1 0.0
Yb1 Yb 0.252 0 0.25 1 0.0
