#------------------------------------------------------------------------------
#$Date: 2016-02-16 14:49:47 +0200 (Tue, 16 Feb 2016) $
#$Revision: 176465 $
#$URL: svn://www.crystallography.net/cod/cif/9/00/15/9001579.cif $
#------------------------------------------------------------------------------
#
# This file is available in the Crystallography Open Database (COD),
# http://www.crystallography.net/. The original data for this entry
# were provided the American Mineralogist Crystal Structure Database,
# http://rruff.geo.arizona.edu/AMS/amcsd.php
#
# The file may be used within the scientific community so long as
# proper attribution is given to the journal article from which the
# data were obtained.
#
data_9001579
loop_
_publ_author_name
'Downs, R. T.'
'Palmer, D. C.'
_publ_section_title
;
 The pressure behavior of alpha cristobalite
 P = 0.19 GPa
;
_journal_name_full               'American Mineralogist'
_journal_page_first              9
_journal_page_last               14
_journal_volume                  79
_journal_year                    1994
_chemical_formula_sum            'O2 Si'
_chemical_name_mineral           Cristobalite
_space_group_IT_number           92
_symmetry_space_group_name_Hall  'P 4abw 2nw'
_symmetry_space_group_name_H-M   'P 41 21 2'
_cell_angle_alpha                90
_cell_angle_beta                 90
_cell_angle_gamma                90
_cell_length_a                   4.9501
_cell_length_b                   4.9501
_cell_length_c                   6.8760
_cell_volume                     168.486
_diffrn_ambient_pressure         1.9e+05
_exptl_crystal_density_diffrn    2.369
_cod_original_formula_sum        'Si O2'
_cod_database_code               9001579
loop_
_symmetry_equiv_pos_as_xyz
x,y,z
y,x,-z
1/2-y,1/2+x,1/4+z
1/2-x,1/2+y,1/4-z
-x,-y,1/2+z
-y,-x,1/2-z
1/2+y,1/2-x,3/4+z
1/2+x,1/2-y,3/4-z
loop_
_atom_site_label
_atom_site_fract_x
_atom_site_fract_y
_atom_site_fract_z
_atom_site_U_iso_or_equiv
Si 0.30270 0.30270 0.00000 0.01013
O 0.23880 0.10860 0.18170 0.01545
