#------------------------------------------------------------------------------
#$Date: 2015-07-10 14:12:28 +0300 (Fri, 10 Jul 2015) $
#$Revision: 141963 $
#$URL: svn://www.crystallography.net/cod/cif/1/52/17/1521749.cif $
#------------------------------------------------------------------------------
#
# This file is available in the Crystallography Open Database (COD),
# http://www.crystallography.net/
#
# All data on this site have been placed in the public domain by the
# contributors.
#
data_1521749
loop_
_publ_author_name
'Kane, R.H.'
'Giessen, B.C.'
'Grant, N.J.'
_publ_section_title
;
 New metastable phases in binary tin alloy systems
;
_journal_name_full               'Acta Metallurgica'
_journal_page_first              605
_journal_page_last               609
_journal_volume                  14
_journal_year                    1966
_chemical_formula_sum            'Pd0.08 Sn0.92'
_chemical_name_systematic        '(Pd0.08 Sn0.92)'
_space_group_IT_number           194
_symmetry_space_group_name_Hall  '-P 6c 2c'
_symmetry_space_group_name_H-M   'P 63/m m c'
_cell_angle_alpha                90
_cell_angle_beta                 90
_cell_angle_gamma                120
_cell_formula_units_Z            2
_cell_length_a                   3.215
_cell_length_b                   3.215
_cell_length_c                   2.979
_cell_volume                     26.666
_citation_journal_id_ASTM        AMETAR
_cod_data_source_file            Kane_AMETAR_1966_1753.cif
_cod_data_source_block           Pd0.08Sn0.92
_cod_original_cell_volume        26.66632
_cod_database_code               1521749
loop_
_symmetry_equiv_pos_as_xyz
x,y,z
x-y,x,z+1/2
-y,x-y,z
-x,-y,z+1/2
-x+y,-x,z
y,-x+y,z+1/2
-y,-x,-z+1/2
x-y,-y,-z
x,x-y,-z+1/2
y,x,-z
-x+y,y,-z+1/2
-x,-x+y,-z
-x,-y,-z
-x+y,-x,-z-1/2
y,-x+y,-z
x,y,-z-1/2
x-y,x,-z
-y,x-y,-z-1/2
y,x,z-1/2
-x+y,y,z
-x,-x+y,z-1/2
-y,-x,z
x-y,-y,z-1/2
x,x-y,z
loop_
_atom_site_label
_atom_site_type_symbol
_atom_site_fract_x
_atom_site_fract_y
_atom_site_fract_z
_atom_site_occupancy
_atom_site_U_iso_or_equiv
Sn1 Sn 0.3333 0.6667 0.25 0.92 0.0
Pd1 Pd 0.3333 0.6667 0.25 0.08 0.0
