#------------------------------------------------------------------------------
#$Date: 2015-07-10 14:07:59 +0300 (Fri, 10 Jul 2015) $
#$Revision: 141943 $
#$URL: svn://www.crystallography.net/cod/cif/1/52/17/1521729.cif $
#------------------------------------------------------------------------------
#
# This file is available in the Crystallography Open Database (COD),
# http://www.crystallography.net/
#
# All data on this site have been placed in the public domain by the
# contributors.
#
data_1521729
loop_
_publ_author_name
'Kanda, F.A.'
'Carter, W.S.'
_publ_section_title
;
 Refined crystal structures of Sr2 Mg17 and Ba2 Mg17
;
_journal_name_full               'Journal of the Less-Common Metals'
_journal_page_first              97
_journal_page_last               102
_journal_volume                  32
_journal_year                    1973
_chemical_formula_sum            'Mg17 Sr2'
_chemical_name_systematic        'Mg17 Sr2'
_space_group_IT_number           194
_symmetry_space_group_name_Hall  '-P 6c 2c'
_symmetry_space_group_name_H-M   'P 63/m m c'
_cell_angle_alpha                90
_cell_angle_beta                 90
_cell_angle_gamma                120
_cell_formula_units_Z            2
_cell_length_a                   10.535
_cell_length_b                   10.535
_cell_length_c                   10.356
_cell_volume                     995.387
_citation_journal_id_ASTM        JCOMAH
_cod_data_source_file            Kanda_JCOMAH_1973_1090.cif
_cod_data_source_block           Mg17Sr2
_cod_original_cell_volume        995.3865
_cod_database_code               1521729
loop_
_symmetry_equiv_pos_as_xyz
x,y,z
x-y,x,z+1/2
-y,x-y,z
-x,-y,z+1/2
-x+y,-x,z
y,-x+y,z+1/2
-y,-x,-z+1/2
x-y,-y,-z
x,x-y,-z+1/2
y,x,-z
-x+y,y,-z+1/2
-x,-x+y,-z
-x,-y,-z
-x+y,-x,-z-1/2
y,-x+y,-z
x,y,-z-1/2
x-y,x,-z
-y,x-y,-z-1/2
y,x,z-1/2
-x+y,y,z
-x,-x+y,z-1/2
-y,-x,z
x-y,-y,z-1/2
x,x-y,z
loop_
_atom_site_label
_atom_site_type_symbol
_atom_site_fract_x
_atom_site_fract_y
_atom_site_fract_z
_atom_site_occupancy
_atom_site_U_iso_or_equiv
Mg4 Mg 0.1652 0.3304 0.9805 1 0.0
Mg3 Mg 0.3283 0.9627 0.25 1 0.0
Sr2 Sr 0.3333 0.6667 0.75 1 0.0
Mg2 Mg 0.5 0 0 1 0.0
Sr1 Sr 0 0 0.25 1 0.0
Mg1 Mg 0.3333 0.6667 0.1041 1 0.0
