#------------------------------------------------------------------------------
#$Date: 2015-01-27 21:58:39 +0200 (Tue, 27 Jan 2015) $
#$Revision: 130149 $
#$URL: svn://www.crystallography.net/cod/cif/1/01/13/1011370.cif $
#------------------------------------------------------------------------------
#
# This file is available in the Crystallography Open Database (COD),
# http://www.crystallography.net/
#
# All data on this site have been placed in the public domain by the
# contributors.
#
data_1011370
loop_
_publ_author_name
'Havighurst, R J'
_publ_section_title              'Crystal structure of the mercurous halides'
_journal_coden_ASTM              AJSC5L
_journal_name_full
;
American Journal of Science, Serie 5(1,1921-1938)
;
_journal_page_first              15
_journal_page_last               28
_journal_volume                  10
_journal_year                    1925
_chemical_compound_source        synthetic
_chemical_formula_structural     'Hg2 I2'
_chemical_formula_sum            'Hg2 I2'
_chemical_name_mineral           Moschelite
_chemical_name_systematic        'Dimercury(I) iodide'
_space_group_IT_number           139
_symmetry_cell_setting           tetragonal
_symmetry_Int_Tables_number      139
_symmetry_space_group_name_Hall  '-I 4 2'
_symmetry_space_group_name_H-M   'I 4/m m m'
_cell_angle_alpha                90
_cell_angle_beta                 90
_cell_angle_gamma                90
_cell_formula_units_Z            2
_cell_length_a                   4.92
_cell_length_b                   4.92
_cell_length_c                   11.61
_cell_volume                     281.0
_exptl_crystal_density_meas      7.7(5)
_cod_database_code               1011370
loop_
_symmetry_equiv_pos_as_xyz
x,y,z
-x,-y,z
-x,y,z
x,-y,z
-y,x,z
y,-x,z
y,x,z
-y,-x,z
-x,-y,-z
x,y,-z
x,-y,-z
-x,y,-z
y,-x,-z
-y,x,-z
-y,-x,-z
y,x,-z
1/2+x,1/2+y,1/2+z
1/2-x,1/2-y,1/2+z
1/2-x,1/2+y,1/2+z
1/2+x,1/2-y,1/2+z
1/2-y,1/2+x,1/2+z
1/2+y,1/2-x,1/2+z
1/2+y,1/2+x,1/2+z
1/2-y,1/2-x,1/2+z
1/2-x,1/2-y,1/2-z
1/2+x,1/2+y,1/2-z
1/2+x,1/2-y,1/2-z
1/2-x,1/2+y,1/2-z
1/2+y,1/2-x,1/2-z
1/2-y,1/2+x,1/2-z
1/2-y,1/2-x,1/2-z
1/2+y,1/2+x,1/2-z
loop_
_atom_site_label
_atom_site_type_symbol
_atom_site_symmetry_multiplicity
_atom_site_Wyckoff_symbol
_atom_site_fract_x
_atom_site_fract_y
_atom_site_fract_z
_atom_site_occupancy
_atom_site_attached_hydrogens
_atom_site_calc_flag
Hg1 Hg1+ 4 e 0. 0. 0.105 1. 0 d
I1 I1- 4 e 0. 0. 0.355 1. 0 d
loop_
_atom_type_symbol
_atom_type_oxidation_number
Hg1+ 1.000
I1- -1.000
