#------------------------------------------------------------------------------
#$Date: 2017-03-04 03:49:09 +0200 (Sat, 04 Mar 2017) $
#$Revision: 192936 $
#$URL: file:///home/coder/svn-repositories/cod/cif/4/34/53/4345369.cif $
#------------------------------------------------------------------------------
#
# This file is available in the Crystallography Open Database (COD),
# http://www.crystallography.net/
#
# All data on this site have been placed in the public domain by the
# contributors.
#
data_4345369
loop_
_publ_author_name
'L\"udtke, Tobias'
'Wiedemann, Dennis'
'Efthimiopoulos, Ilias'
'Becker, Nils'
'Seidel, Stefan'
'Janka, Oliver'
'P\"ottgen, Rainer'
'Dronskowski, Richard'
'Koch-M\"uller, Monika'
'Lerch, Martin'
_publ_section_title
;
 HP-MoO2: A High-Pressure Polymorph of Molybdenum Dioxide.
;
_journal_issue                   4
_journal_name_full               'Inorganic chemistry'
_journal_page_first              2321
_journal_page_last               2327
_journal_paper_doi               10.1021/acs.inorgchem.6b03067
_journal_volume                  56
_journal_year                    2017
_chemical_formula_iupac          'Mo O2(oP36)'
_chemical_formula_sum            'Mo O2'
_chemical_formula_weight         127.94
_chemical_name_common            'molydenum(IV) oxide - Hp'
_chemical_name_systematic        'molybdenum dioxide'
_space_group_crystal_system      orthorhombic
_space_group_IT_number           62
_space_group_name_Hall           '-P 2ac 2n'
_space_group_name_H-M_alt        'P n m a'
_symmetry_space_group_name_Hall  '-P 2ac 2n'
_symmetry_space_group_name_H-M   'P n m a'
_atom_sites_solution_primary     direct
_atom_sites_solution_secondary   difmap
_audit_creation_date             2016-09-13
_audit_creation_method           'CrysAlisPro 1.171.38.43 (Rigaku OD, 2015)'
_cell_angle_alpha                90
_cell_angle_beta                 90
_cell_angle_gamma                90
_cell_formula_units_Z            12
_cell_length_a                   9.6921(3)
_cell_length_b                   8.4322(3)
_cell_length_c                   4.7188(2)
_cell_measurement_reflns_used    1627
_cell_measurement_temperature    150.00(10)
_cell_measurement_theta_max      73.366
_cell_measurement_theta_min      9.142
_cell_volume                     385.65(2)
_computing_cell_refinement       'CrysAlisPro 1.171.38.43 (Rigaku OD, 2015)'
_computing_data_collection       'CrysAlisPro 1.171.38.43 (Rigaku OD, 2015)'
_computing_data_reduction        'CrysAlisPro 1.171.38.43 (Rigaku OD, 2015)'
_computing_molecular_graphics    'Diamond 3.2 (Brandenburg, 2014)'
_computing_publication_material  'WinGX (Farrugia, 2012)'
_computing_structure_refinement  'SHELXL-2016/4 (Sheldrick, 2015)'
_computing_structure_solution    'SHELXS-2013/1 (Sheldrick, 2015)'
_diffrn_ambient_environment      N~2~
_diffrn_ambient_temperature      150.00(10)
_diffrn_detector                 'CCD plate'
_diffrn_detector_area_resol_mean 10.5435
_diffrn_detector_type            'Agilent Atlas'
_diffrn_measured_fraction_theta_full 1.000
_diffrn_measured_fraction_theta_max 0.990
_diffrn_measurement_details
;
List of Runs (angles in degrees, time in seconds):

  # Type    Start    End  Width  t~exp~   \w     \q     \k     \f   Frames
--------------------------------------------------------------------------
  1  \w   -112.00 -24.00   1.00   15.00    --  -41.43 -38.00 -60.00   88
  2  \w    -93.00  -2.00   1.00   15.00    --  -41.43 125.00-180.00   91
  3  \w    -66.00  24.00   1.00   15.00    --  -41.43  38.00 120.00   90
  4  \w     16.00  41.00   1.00   15.00    --   41.43-125.00-180.00   25
  5  \w     79.00 104.00   1.00   20.00    --  106.44  30.00 -90.00   25
  6  \w    113.00 138.00   1.00   20.00    --  106.44  30.00 -90.00   25
  7  \w     45.00 119.00   1.00   20.00    --  106.44 -61.00-150.00   74
  8  \w     77.00 157.00   1.00   20.00    --  106.44 125.00-120.00   80
  9  \w     93.00 118.00   1.00   20.00    --  106.44-125.00  60.00   25
 10  \w     74.00 138.00   1.00   20.00    --  106.44 -77.00 -90.00   64
 11  \w     79.00 115.00   1.00   20.00    --  106.44  61.00-150.00   36
 12  \w    128.00 154.00   1.00   20.00    --  106.44  61.00-150.00   26
 13  \w     34.00  79.00   1.00   20.00    --  106.44 -30.00 -90.00   45
 14  \w     86.00 123.00   1.00   20.00    --  106.44 -30.00 -90.00   37
 15  \w     34.00 108.00   1.00   20.00    --  106.44 -94.00-180.00   74
 16  \w     38.00 113.00   1.00   20.00    --  106.44-125.00 120.00   75
 17  \w     46.00 116.00   1.00   20.00    --  106.44 -15.00  60.00   70
;
_diffrn_measurement_device       '\k-geometry diffractometer'
_diffrn_measurement_device_type  'Agilent SuperNova (Single Source)'
_diffrn_measurement_method       '\w scans'
_diffrn_measurement_specimen_support 'glass capillary'
_diffrn_orient_matrix_type
'CrysAlisPro convention (Paciorek et al., 1999)'
_diffrn_orient_matrix_UB_11      0.0292060000
_diffrn_orient_matrix_UB_12      -0.1585148000
_diffrn_orient_matrix_UB_13      -0.1508201000
_diffrn_orient_matrix_UB_21      0.0109184000
_diffrn_orient_matrix_UB_22      -0.0835461000
_diffrn_orient_matrix_UB_23      0.2894922000
_diffrn_orient_matrix_UB_31      -0.1558336000
_diffrn_orient_matrix_UB_32      -0.0356571000
_diffrn_orient_matrix_UB_33      -0.0077902000
_diffrn_radiation_monochromator  mirror
_diffrn_radiation_probe          x-ray
_diffrn_radiation_type           'Cu K\a'
_diffrn_radiation_wavelength     1.54184
_diffrn_reflns_av_R_equivalents  0.0276
_diffrn_reflns_av_unetI/netI     0.0122
_diffrn_reflns_Laue_measured_fraction_full 1.000
_diffrn_reflns_Laue_measured_fraction_max 0.990
_diffrn_reflns_limit_h_max       10
_diffrn_reflns_limit_h_min       -11
_diffrn_reflns_limit_k_max       9
_diffrn_reflns_limit_k_min       -10
_diffrn_reflns_limit_l_max       5
_diffrn_reflns_limit_l_min       -5
_diffrn_reflns_number            1931
_diffrn_reflns_point_group_measured_fraction_full 1.000
_diffrn_reflns_point_group_measured_fraction_max 0.990
_diffrn_reflns_theta_full        67.500
_diffrn_reflns_theta_max         72.263
_diffrn_reflns_theta_min         9.154
_diffrn_source                   'micro-focus sealed tube'
_diffrn_source_type              'Agilent Nova'
_diffrn_standards_number         0
_exptl_absorpt_coefficient_mu    78.438
_exptl_absorpt_correction_T_max  0.162
_exptl_absorpt_correction_T_min  0.020
_exptl_absorpt_correction_type   analytical
_exptl_absorpt_process_details
;
CrysAlisPro 1.171.38.43 (Rigaku Oxford Diffraction, 2015)

Analytical numeric absorption correction using a multifaceted crystal
 model based on expressions derived by R.C. Clark & J.S. Reid
 (Clark & Reid, 1995).

Empirical absorption correction using spherical harmonics,
 implemented in SCALE3 ABSPACK scaling algorithm.
;
_exptl_crystal_colour            violet
_exptl_crystal_density_diffrn    6.611
_exptl_crystal_density_method    'not measured'
_exptl_crystal_description       prism
_exptl_crystal_F_000             696
_exptl_crystal_size_max          0.086
_exptl_crystal_size_mid          0.067
_exptl_crystal_size_min          0.057
_refine_diff_density_max         1.288
_refine_diff_density_min         -1.573
_refine_diff_density_rms         0.402
_refine_ls_extinction_coef       0.0038(2)
_refine_ls_extinction_expression Fc^*^=kFc[1+0.001xFc^2^\l^3^/sin(2\q)]^-1/4^
_refine_ls_extinction_method     'SHELXL-2016/4 (Sheldrick, 2015)'
_refine_ls_goodness_of_fit_ref   1.157
_refine_ls_hydrogen_treatment    undef
_refine_ls_matrix_type           full
_refine_ls_number_parameters     47
_refine_ls_number_reflns         403
_refine_ls_number_restraints     0
_refine_ls_restrained_S_all      1.157
_refine_ls_R_factor_all          0.0271
_refine_ls_R_factor_gt           0.0267
_refine_ls_shift/su_max          0.000
_refine_ls_shift/su_mean         0.000
_refine_ls_structure_factor_coef Fsqd
_refine_ls_weighting_details
'w=1/[\s^2^(Fo^2^)+(0.0507P)^2^+0.4034P] where P=(Fo^2^+2Fc^2^)/3'
_refine_ls_weighting_scheme      calc
_refine_ls_wR_factor_gt          0.0700
_refine_ls_wR_factor_ref         0.0708
_reflns_Friedel_coverage         0.000
_reflns_number_gt                393
_reflns_number_total             403
_reflns_threshold_expression     I>2\s(I)
_cod_data_source_file            ic6b03067_si_002.cif
_cod_data_source_block           MoO2
_cod_database_code               4345369
_shelx_shelxl_version_number     2016/4
_shelx_space_group_comment
;
The symmetry employed for this shelxl refinement is uniquely defined
by the following loop, which should always be used as a source of
symmetry information in preference to the above space-group names.
They are only intended as comments.
;
_shelx_res_file
;
TITL CU-2015 in Pnma
 shelx.res created by SHELXL-2016/4 at 14:42:07 on 13-Sep-2016
CELL  1.54184   9.6921   8.4322   4.7188   90.000   90.000   90.000
ZERR    12.00   0.0003   0.0003   0.0002    0.000    0.000    0.000
LATT  1
SYMM  1/2 - X, - Y, 1/2 + Z
SYMM  - X, 1/2 + Y, - Z
SYMM  1/2 + X, 1/2 - Y, 1/2 - Z
SFAC  MO  O
UNIT  12  24
MERG  2
OMIT  9   6   2
FMAP  2
PLAN  20
ACTA  135.00
BOND
CONF
L.S.  20
TEMP  -123.00
WGHT    0.050700    0.403400
EXTI    0.003824
FVAR       3.44284
MO1   1    0.365234    0.250000    0.020484    10.50000    0.01046    0.00374 =
         0.00612    0.00000   -0.00002    0.00000
MO2   1    0.133046    0.100810    0.006143    11.00000    0.01072    0.00341 =
         0.00657   -0.00002    0.00013    0.00005
O1    2    0.200057    0.574576    0.277108    11.00000    0.01256    0.00590 =
         0.00979   -0.00031    0.00027    0.00045
O2    2    0.456691    0.086317    0.277639    11.00000    0.01318    0.00687 =
         0.00963   -0.00073    0.00013   -0.00090
O3    2    0.043448    0.250000    0.745163    10.50000    0.01353    0.00786 =
         0.00543    0.00000   -0.00064    0.00000
O4    2    0.206343    0.250000    0.301230    10.50000    0.01253    0.00631 =
         0.00966    0.00000    0.00082    0.00000
HKLF  4




REM  CU-2015 in Pnma
REM R1 =  0.0267 for     393 Fo > 4sig(Fo)  and  0.0271 for all     403 data
REM     47 parameters refined using      0 restraints

END

WGHT      0.0507      0.4034

REM Highest difference peak  1.288,  deepest hole -1.573,  1-sigma level  0.402
Q1    1   0.3704  0.2500  0.5114  10.50000  0.05    1.29
Q2    1   0.0003  0.2500  0.4871  10.50000  0.05    1.14
Q3    1   0.2349  0.1011  0.0117  11.00000  0.05    1.09
Q4    1   0.1296  0.4205  0.5047  11.00000  0.05    1.05
Q5    1   0.1618  0.5038  0.3979  11.00000  0.05    0.99
Q6    1   0.2592  0.2500  0.0284  10.50000  0.05    0.99
Q7    1   0.3430 -0.0007  0.1220  11.00000  0.05    0.99
Q8    1   0.1962  0.2500  0.2248  10.50000  0.05    0.87
Q9    1   0.1207  0.6429  0.1208  11.00000  0.05    0.85
Q10   1   0.3564  0.1393  0.4089  11.00000  0.05    0.83
Q11   1   0.3589  0.2500  0.1997  10.50000  0.05    0.82
Q12   1   0.1364  0.0953 -0.1782  11.00000  0.05    0.81
Q13   1   0.0359  0.1006 -0.0015  11.00000  0.05    0.80
Q14   1   0.0450  0.2500  0.2527  10.50000  0.05    0.75
Q15   1   0.1398  0.1007  0.1719  11.00000  0.05    0.71
Q16   1   0.4058  0.2500  0.0068  10.50000  0.05    0.69
Q17   1   0.4757 -0.0176  0.1173  11.00000  0.05    0.68
Q18   1   0.3011  0.0907  0.2452  11.00000  0.05    0.67
Q19   1   0.5445  0.0185  0.0968  11.00000  0.05    0.65
Q20   1   0.0445  0.5829  0.2151  11.00000  0.05    0.65
;
_shelx_res_checksum              85270
_shelx_hkl_file
;
  -1   0   0 5.87492 23.0002   2
  -2   0   0 25831.2 368.240   2
  -2   0   0 26367.6 293.932   3
  -3   0   0 65.5322 27.4510   3
   3   0   0 26.9044 24.3580   1
  -4   0   0 595762. 2428.10   2
  -5   0   0 77.0568 87.9311   2
  -6   0   0 129490. 1387.84   2
  -7   0   0-20.0683 97.9080  16
  -7   0   0-40.2552 108.516   2
  -7   0   0 35.4270 70.6804   9
  -7   0   0-80.0579 99.9930  15
  -8   0   0 336371. 2360.16  15
  -8   0   0 333974. 2165.27   9
  -8   0   0 350861. 2461.89   2
  -8   0   0 350163. 2500.19  16
  -9   0   0 89.2743 82.2945  15
  -9   0   0 23.7671 83.8751  16
  -9   0   0-4.26236 62.6940   9
 -10   0   0 128351. 1157.43  15
 -10   0   0 125835. 1095.79   9
 -10   0   0 129270. 1265.89  16
 -11   0   0-23.3740 35.3256  15
   0  -1   0 19.8735 84.0051   3
   1  -1   0 25.7106 48.5444   3
  -1  -1   0 49.3412 115.821   3
  -2   1   0 8230.01 235.892   2
  -2  -1   0 8578.73 209.574   2
  -3  -1   0 111.446 77.1497   3
  -3  -1   0 37.3603 78.7971   2
  -3   1   0 43.5563 72.7252   2
  -4  -1   0-16.6450 83.6487   2
  -4   1   0 65.5650 94.1748   2
  -4  -1   0 29.1158 48.5831   3
  -5  -1   0-18.6212 91.6946   2
  -5   1   0 3.89239 84.0663   2
  -6  -1   0 4113.80 254.351   2
  -6   1   0 4844.45 274.732   2
  -7   1   0 93.2471 85.5578  15
  -7  -1   0 51.2952 103.798  16
  -7   1   0 22.7273 86.2039  16
  -7  -1   0 50.6470 106.000   2
  -7   1   0 131.917 96.7874   2
  -7   1   0 32.6896 61.2758   9
  -8   1   0 303.771 87.5863   9
  -8   1   0 2808.09 230.265  16
  -8  -1   0 612.125 142.376   2
  -8   1   0 165.594 86.7783   2
  -8  -1   0 208.783 107.591  16
  -8  -1   0 215.930 95.8297   9
  -8   1   0 114.934 85.2496  15
  -8  -1   0 2754.67 229.271  15
  -9  -1   0 110.145 82.3300  15
  -9   1   0 33.8065 60.8374  15
  -9  -1   0-52.8381 80.1289   9
  -9   1   0 45.9464 77.6310  16
  -9  -1   0 72.2288 92.3366  16
 -10  -1   0 3854.88 229.841  16
 -10   1   0 3727.75 194.753  15
 -10  -1   0 3934.29 204.812  15
 -11  -1   0 19.1232 30.3057  15
 -11   1   0-10.6143 40.5164  15
   0  -2   0 36759.0 697.190   3
  -1  -2   0 18.1799 162.268   3
   1  -2   0 28.3582 102.157   3
  -2  -2   0 531.577 154.081   3
   2  -2   0 373.675 105.133   3
  -2   2   0 645.089 114.347   2
  -3   2   0 50.7496 73.4266   2
  -3  -2   0 57.0753 93.7053   3
  -4  -2   0 23514.9 520.250   3
  -4  -2   0 24137.0 510.147   2
  -5   2   0-2.64586 69.5256   2
  -5  -2   0 54.6311 91.4687   2
  -5  -2   0 45.0970 54.5966   3
  -6  -2   0 2618.07 215.951   2
  -6   2   0 2014.52 172.359   2
  -7  -2   0 2.47657 84.3406  15
  -7  -2   0 48.9300 90.9452  16
  -7   2   0 47.3300 59.7567   9
  -7   2   0 157.318 87.3355  16
  -7   2   0 49.7264 78.9829  15
  -7   2   0 67.9007 66.5607   2
  -8  -2   0 12675.8 459.954  15
  -8  -2   0 12234.3 504.422  16
  -8   2   0 12045.0 410.080   2
  -8   2   0 12287.7 431.604  15
  -9  -2   0-52.9264 78.7324  15
  -9  -2   0-0.85977 78.4287   9
  -9  -2   0-4.05311 85.1247  16
 -10  -2   0 5411.39 262.914  16
 -10  -2   0 5606.48 220.763  15
 -10   2   0 5437.74 220.313  15
 -10  -2   0 5907.12 252.466   9
 -11   2   0-15.6814 37.7916  15
 -11  -2   0 46.6941 36.9701   9
   0  -3   0 348.485 156.420   3
  -1  -3   0 21.6800 138.722   3
   1  -3   0 143.665 132.522   3
   2  -3   0 664387. 3369.86   3
  -2   3   0 660600. 2733.29   2
  -3  -3   0 203.989 109.681   3
  -3   3   0 97.9072 66.8395   2
  -4  -3   0 53848.6 918.945   3
  -4   3   0 51505.5 747.191   2
  -5   3   0 39.6202 58.0723   2
  -5  -3   0-10.4891 71.6831   3
  -6   3   0 847449. 3346.54   2
  -6  -3   0 835226. 3848.46  16
  -7   3   0 21.4091 70.0360  15
  -7  -3   0 2.54827 94.4312  16
  -7   3   0 45.9036 63.4104   2
  -7  -3   0 26.7445 79.3006  10
  -8   3   0 95540.0 1117.63  15
  -8  -3   0 92498.1 1338.64  16
  -9   3   0 484.656 83.7798  15
  -9  -3   0-12.1958 79.4354  16
 -10  -3   0 238646. 1598.63  16
 -10  -3   0 243379. 1494.57   9
 -11   3   0 2.30870 29.8866  15
 -11  -3   0 136.061 38.8169   9
   0  -4   0 59104.5 1022.67   3
  -1  -4   0 61.2746 120.132   3
   1  -4   0 741.556 162.934   3
  -2  -4   0 252.602 121.455   3
   2  -4   0 230.426 139.199   3
  -3  -4   0 97.6731 107.634   3
  -3   4   0 35.5494 69.7258   2
  -4   4   0 53754.1 779.575   2
  -4  -4   0 55018.1 1030.35   3
  -5  -4   0 6.89708 94.6249   3
  -5  -4   0 7.65571 72.3814  10
  -5   4   0 214.275 72.7672   2
  -6  -4   0 1441.43 142.838  10
  -6   4   0 1594.27 153.779  15
  -6   4   0 1792.67 153.230   2
  -6  -4   0 2017.26 210.775  16
  -7   4   0 60.4846 65.9881  15
  -7  -4   0 26.0558 87.5876  16
  -7   4   0 13.1782 52.9253   2
  -8   4   0 26868.3 552.038  15
  -8  -4   0 27491.0 532.346  10
  -8  -4   0 25946.1 678.818  16
  -9  -4   0-5.63405 33.5564  10
  -9  -4   0-29.4753 66.4374  16
  -9   4   0 40.2806 42.9249  15
 -10   4   0 2931.53 127.857  15
 -10  -4   0 3405.14 168.425   9
 -10  -4   0 3062.54 167.669  16
 -11   4   0 5.37282 17.0652  15
 -11  -4   0 19.9185 25.8975   9
   0  -5   0 125.551 120.941   3
  -1  -5   0 136.307 114.457   3
   1  -5   0-3.89236 123.321   3
  -2   5   0 145377. 1450.44   2
  -2  -5   0 137594. 1602.10   3
  -3  -5   0 122.442 111.321   3
  -3   5   0 42.8390 65.7700   2
  -4   5   0 11645.1 338.803  17
  -4  -5   0 12623.0 529.441   3
  -4   5   0 11389.8 377.470   2
  -4  -5   0 12543.2 400.125  10
  -5   5   0 113.055 55.1223  17
  -5   5   0 65.1675 56.1377   2
  -5  -5   0 213.414 92.4237  16
  -5  -5   0 30.2267 78.8256  10
  -5  -5   0 15.6530 109.190   3
  -6  -5   0 73990.8 1171.28  16
  -6  -5   0 75984.9 964.830  10
  -7  -5   0 14.3040 74.0110  16
  -7  -5   0 50.9152 69.4220  10
  -8  -5   0 13860.3 471.661  16
  -8  -5   0 14575.1 403.587  10
  -9  -5   0-0.98372 50.3948  16
  -9   5   0 21.5729 34.2369  15
 -10  -5   0 28447.1 394.099  16
 -10   5   0 27963.7 298.008  15
   0  -6   0 976280. 4882.26   3
   0  -6   0 954279. 4070.40  10
  -1   6   0 89.8635 81.8489  17
   1  -6   0 50.4473 210.362  11
  -1  -6   0-2.60691 85.9338  10
   1   6   0 42.3568 131.129  17
  -1  -6   0-7.18592 121.132   3
  -2  -6   0 7960.92 415.635   3
  -2   6   0 7400.40 301.251  17
  -2   6   0 8314.50 389.990   2
   2  -6   0 7516.20 352.522  14
  -2  -6   0 8652.25 355.923  10
  -3   6   0 54.9434 66.9534   2
   3  -6   0-195.380 280.694  11
  -3  -6   0 59.1473 113.077   3
  -3   6   0 26.0574 58.7560  17
  -3  -6   0 19.5053 83.7403  10
  -4  -6   0 376074. 2240.68  10
  -4  -6   0 375754. 2886.69   3
  -5  -6   0-41.0126 61.2279  14
  -5  -6   0 54.8853 76.1711  10
  -5   6   0-2.76947 45.2436  17
  -6  -6   0 53271.0 798.541  10
  -6  -6   0 57246.0 968.040  16
  -7  -6   0 16.7396 62.5415  10
   7  -6   0-190.640 335.452  11
  -7  -6   0 99.6218 69.3566  16
  -8  -6   0 212784. 1339.60  10
   8  -6   0 223414. 2716.28  11
  -9  -6   0-23.1499 32.7588  10
   9  -6   0 852.475 230.482  11
   0  -7   0 191.555 93.0177  14
   0  -7   0-21.9410 128.054  11
   0  -7   0 164.414 87.9970  10
   0   7   0 49.2542 94.3714  17
  -1   7   0 33.3481 77.7940  17
   1  -7   0 88.5538 166.377  11
  -1   7   0 36.7165 106.140   2
  -1  -7   0 63.9791 98.7132  10
   1  -7   0 22.2929 81.6624  14
   2  -7   0 89114.7 1210.94  14
  -2  -7   0 90553.3 1161.59  10
  -2   7   0 88747.8 1227.11   2
   3  -7   0 118.895 90.0955  14
  -3  -7   0 21.9471 63.4718  14
  -3  -7   0 11.3677 79.7689  10
  -3   7   0 7.92432 56.2928  17
   3  -7   0 67.6187 205.570  11
  -4   7   0 4547.89 219.336  17
  -4  -7   0 4823.23 266.120  10
  -4  -7   0 4642.85 254.531  14
   5  -7   0-49.4740 241.697  11
  -5  -7   0 87.0151 61.5804  14
  -5  -7   0 38.5861 70.5525  10
   6  -7   0 49092.7 1273.45  11
  -6  -7   0 45925.3 701.382  10
   7  -7   0 48.3060 180.936  11
  -7  -7   0 36.1991 52.7227  10
  -8  -7   0 2495.03 129.866  10
   8  -7   0 2693.93 259.600  11
   0  -8   0 231299. 1828.52  14
   1  -8   0 9.55608 71.3164  14
  -1  -8   0 56.3494 71.6071  10
   1  -8   0-24.0603 111.556  11
  -1  -8   0 129.029 82.7327  14
   2  -8   0 1082.79 183.412  11
  -2  -8   0 1134.51 137.377  10
  -2  -8   0 1151.35 135.720  14
   2  -8   0 1266.25 155.147  14
   3  -8   0 195.985 153.014  11
  -3  -8   0 166.069 71.4831  14
   3  -8   0 1.77142 66.4982  14
  -3  -8   0 33.4870 77.7767  10
  -4  -8   0 189889. 1478.45  10
  -4  -8   0 183728. 1389.27  14
   5  -8   0 139.525 148.780  11
  -5  -8   0 56.4962 42.4068  14
  -5  -8   0 184.743 70.3739  10
  -6  -8   0 16866.3 366.900  10
   6  -8   0 24818.2 636.692  11
  -7  -8   0 170.185 42.1856  10
   7  -8   0 141.603 94.5530  11
   0  -9   0 3319.41 200.557  14
  -1  -9   0 69.1858 61.5964  14
   1  -9   0-17.9500 49.8259  14
   2  -9   0 219297. 1462.53  14
  -2  -9   0 206895. 1423.56  14
   3  -9   0 24.1218 71.3507  11
  -3  -9   0 61.8043 47.3588  14
  -3  -9   0-16.8610 46.2360  10
  -4  -9   0 12635.2 293.220  10
   4  -9   0 12810.8 344.770  11
  -5  -9   0-13.3618 17.3566  14
  -5  -9   0 29.5485 34.5914  10
   6  -9   0 296924. 1261.98  11
   0 -10   0 53011.0 541.103  14
  -1 -10   0 11.8999 29.7991  14
   1 -10   0 104.620 34.2699  14
  -2 -10   0 62.4131 29.7871  14
  -3 -10   0 24.7020 19.6053  14
   0   0   1 57.6021 73.6010   1
   1   0   1 101767. 816.319   1
  -1   0   1 100663. 880.145   1
   2   0   1 312.256 86.2628   1
  -2   0   1 236.554 60.6069   2
  -2   0  -1 171.070 61.2737   2
  -2   0   1 176.119 82.1379   1
  -3   0   1 86935.2 801.244   2
  -3   0  -1 84521.1 859.993   2
  -3   0   1 84034.2 885.715   3
  -4   0  -1 119904. 1122.36   2
  -4   0   1 122887. 1012.85   3
   4   0   1 114427. 920.490   1
  -4   0   1 117095. 1049.22   2
  -5   0   1 57836.4 826.573   2
  -5   0  -1 58580.5 872.866   2
  -6   0   1 81.4972 94.2913   2
  -6   0  -1 109.288 95.7858   2
  -7   0  -1 78935.3 1143.17   2
  -7   0  -1 86381.5 1011.00   7
  -7   0  -1 78264.8 1184.44  16
  -7   0   1 87116.1 1230.57   2
  -7   0   1 75223.4 1134.31  15
  -7   0   1 87081.9 1258.95  16
  -7   0  -1 75630.0 964.323   9
  -7   0   1 85619.3 1120.91   9
  -7   0   1 86311.0 1187.83   8
  -7   0  -1 88010.1 1261.92  15
  -8   0   1 24243.3 591.669   9
  -8   0   1 24434.2 687.234  16
  -8   0  -1 22659.6 484.667   7
  -8   0  -1 21602.2 588.816  15
  -8   0  -1 20640.3 579.565  16
  -8   0   1 23827.1 666.473  15
  -8   0   1 24798.1 670.820   2
  -8   0  -1 21750.6 604.533   2
  -8   0  -1 19845.8 491.202   9
  -9   0   1 9518.93 391.486  16
  -9   0   1 9706.46 386.175  15
  -9   0   1 9620.80 360.685   9
  -9   0  -1 8665.80 352.920  15
 -10   0   1 905.403 104.903  15
 -10   0  -1 807.346 99.3986  15
 -10   0   1 749.323 105.280  16
 -11   0   1 43286.4 472.217  15
 -11   0  -1 44089.5 484.307  15
   0  -1   1 8975.50 302.301   1
   0   1   1 9511.78 277.745   1
  -1  -1   1 333183. 1759.35   3
   1  -1   1 336725. 1683.36   1
  -2  -1   1 310.188 123.006   3
  -2  -1   1 396.124 157.671   4
  -2   1  -1 271.041 85.3696   2
  -2   1   1 362.733 61.4971   2
   2  -1   1 321.753 90.2496   1
  -2   1   1 301.574 72.7238   1
   2   1   1 294.740 103.184   1
  -2  -1  -1 267.182 53.5132   2
  -3   1   1 233724. 1074.45   1
  -3  -1   1 239343. 1698.81   3
  -3   1  -1 212539. 1415.47   2
  -3   1   1 226682. 1986.96   4
   3  -1   1 239286. 1411.65   1
   3  -1   1 211470. 1069.45   3
  -3  -1   1 240032. 2261.09   4
  -3   1   1 216052. 1245.64   2
   3   1   1 221650. 1490.77   1
  -3  -1  -1 230174. 1230.20   2
  -4  -1   1 3758.38 213.243   2
  -4  -1  -1 3408.37 183.985   2
  -4  -1   1 3019.95 195.331   3
  -4   1   1 3688.52 196.474   2
  -4   1   1 3619.78 295.495   4
  -4   1  -1 3006.69 191.593   2
   4   1   1 3118.95 182.399   1
  -5  -1   1 387414. 2201.61   2
  -5  -1  -1 387649. 2120.96   2
  -5   1   1 388602. 2161.82   2
  -6  -1  -1 223.898 100.768   2
  -6   1  -1 217.745 95.2972   2
  -6   1   1 175.081 92.5577   2
  -6  -1   1 217.927 110.466   2
  -7   1  -1 58319.0 764.860   9
  -7  -1   1 78044.0 1213.56  16
  -7  -1  -1 75953.0 909.953   7
  -7   1   1 71898.7 1051.82   2
  -7  -1  -1 69125.1 1084.60  15
  -7   1  -1 69743.6 1043.64  16
  -7   1  -1 74162.5 1102.95  15
  -7   1   1 67190.8 1069.42  15
  -7  -1   1 81162.4 1152.94   9
  -7  -1  -1 70270.6 1084.96   2
  -7   1   1 65901.1 1035.82  16
  -7   1   1 73114.7 1053.39   8
  -7  -1   1 74404.3 1242.35  15
  -7  -1  -1 64892.5 1086.25  16
  -7   1  -1 65284.4 998.180   2
  -7   1   1 70995.8 952.228   9
  -7  -1   1 74399.3 1143.69   8
  -8   1  -1 2397.81 199.694   2
  -8   1  -1 2213.51 157.565   9
  -8   1   1 2362.15 201.680  16
  -8  -1   1 2473.80 216.662   9
  -8  -1  -1 2194.91 215.582  15
  -8  -1  -1 2550.83 233.521   2
  -8  -1  -1 2407.15 190.367   9
  -8   1   1 2609.74 213.273   2
  -8  -1   1 2618.09 247.003  16
  -8   1  -1 2553.69 209.456  15
  -8   1  -1 2369.17 156.690   7
  -8   1   1 2558.21 191.300   9
  -8  -1   1 2537.06 226.126  15
  -8  -1  -1 2335.27 219.270  16
  -8  -1   1 2458.08 211.534   8
  -8   1   1 2368.95 205.441  15
  -9   1   1 250893. 1850.41  16
  -9  -1   1 258841. 2121.95  16
  -9  -1  -1 235569. 1655.57   9
  -9   1  -1 255245. 1770.46  15
  -9  -1  -1 244584. 1915.09  16
  -9  -1   1 250407. 1842.42  15
  -9  -1   1 268227. 1876.95   9
  -9   1  -1 245896. 1361.84   7
  -9   1   1 254101. 1868.93  15
  -9  -1  -1 242008. 1782.58  15
 -10  -1   1 596.975 83.6597  15
 -10   1  -1 504.623 84.6098  15
 -10  -1   1 567.492 104.538  16
 -10  -1  -1 585.770 90.4773  15
 -10  -1   1 617.982 93.8399   9
 -10  -1  -1 510.978 77.2201   9
 -10   1   1 547.667 81.1699  15
 -11   1  -1 5799.11 170.054  15
 -11  -1   1 5760.83 203.376  16
 -11   1   1 6281.03 182.323  15
   0  -2   1 62.5083 116.665   3
   0   2   1 20.3943 119.240   1
   1  -2   1 223213. 1650.35   3
  -1  -2   1 200276. 1638.68   3
   1   2   1 212024. 1692.45   1
  -1   2   1 204719. 939.197   2
  -1  -2   1 188167. 1595.26   4
  -1   2   1 208080. 1367.16   1
   2  -2   1 6683.45 276.688   3
  -2  -2   1 6819.43 339.418   3
   2   2   1 8458.78 369.095   1
  -2   2  -1 8148.82 331.687   2
  -2   2   1 6996.13 206.575   2
  -2  -2   1 5914.18 323.083   4
  -2   2   1 7262.50 241.420   1
  -3  -2   1 244042. 2019.54   3
  -3   2   1 230729. 1113.27   1
  -3   2  -1 237362. 1564.61   2
  -3   2   1 242702. 1424.15   2
   3   2   1 219475. 1725.73   1
  -3  -2  -1 229308. 1271.78   2
  -3   2   1 222752. 1891.31   4
  -4  -2   1 715.523 128.920   3
  -4   2   1 779.418 102.430   2
  -4   2  -1 766.473 117.011   2
  -4  -2  -1 775.269 100.479   2
   4   2   1 569.617 105.879   1
  -5  -2  -1 67181.8 868.141   2
  -5   2  -1 65806.1 888.040   2
  -5   2   1 68937.4 881.516   2
  -6   2  -1 1281.43 148.819   2
  -6  -2  -1 1358.84 157.004   2
  -6  -2   1 1322.92 188.857   8
  -6   2   1 1298.97 181.786  15
  -6   2   1 1457.58 147.276   2
  -6  -2   1 1904.19 192.432  16
  -7  -2   1 182209. 1861.70  16
  -7  -2  -1 158539. 1539.02  15
  -7  -2   1 169709. 1766.19   8
  -7   2   1 164947. 1697.36  15
  -7   2   1 173555. 1516.35   2
  -7  -2  -1 165256. 1678.93   2
  -7  -2  -1 161095. 1761.23  16
  -7   2   1 161788. 1459.36  16
  -7   2  -1 168532. 1511.58   2
  -7   2  -1 181230. 1655.17  15
  -8   2   1 553.723 104.791  15
  -8   2   1 625.942 103.162  16
  -8   2  -1 662.300 122.551  15
  -8  -2   1 734.985 138.070   9
  -8  -2  -1 696.802 140.805  16
  -8  -2   1 733.790 152.627  16
  -8  -2  -1 645.774 128.186  15
  -9   2  -1 11426.8 359.733  15
  -9  -2  -1 11022.1 374.030   9
  -9   2   1 11130.8 382.100  15
  -9  -2   1 12404.5 417.434   9
  -9  -2   1 12765.2 494.898  16
  -9  -2  -1 10643.0 389.601  16
  -9  -2  -1 11369.5 309.959  10
  -9   2  -1 10907.3 281.015   7
  -9  -2  -1 12376.9 410.344  15
 -10  -2   1 409.454 92.7222  16
 -10   2  -1 409.681 71.1462  15
 -10  -2  -1 354.930 66.3024   9
 -10  -2   1 464.412 81.7877   9
 -10   2   1 382.980 68.2698  15
 -11  -2  -1 100473. 639.538   9
 -11   2   1 99881.3 672.355  15
 -11  -2   1 102131. 817.367  16
   0   3   1 534.093 156.373   1
   0  -3   1 452.660 134.617   3
  -1  -3   1 89584.3 1211.12   3
   1   3   1 104434. 1488.52   1
   1  -3   1 91675.3 1202.68   3
  -1   3   1 101013. 905.281   2
  -1   3   1 103522. 1097.99   1
   2  -3   1 109920. 1354.94   3
  -2  -3   1 103824. 1348.12   3
  -2   3   1 120547. 1035.87   1
  -2   3   1 113958. 921.401   2
   2   3   1 105096. 1386.64   1
  -2   3   1 118666. 1315.89   4
  -3   3   1 33402.4 477.208   1
  -3  -3   1 28647.2 713.078   3
   3   3   1 31119.4 772.917   1
  -3   3   1 31341.6 498.537   2
  -3   3   1 30378.5 687.450   4
  -3   3  -1 32831.2 641.418   2
  -4  -3   1 1564.70 205.529   3
   4   3   1 1486.82 201.098   1
  -4   3  -1 1557.40 157.349   2
  -4   3   1 1656.61 134.775   2
  -5   3   1 68361.0 838.723   2
  -5   3  -1 66895.0 903.943   2
  -5  -3   1 68340.1 1073.62   3
  -6   3   1 1837.94 153.856   2
  -6   3  -1 1858.50 179.347  15
  -6  -3   1 1828.23 185.981  16
  -6  -3  -1 1768.24 172.822  15
  -6   3  -1 1852.32 163.521   2
  -6  -3   1 1781.49 200.049   8
  -6  -3  -1 1784.07 208.692  16
  -6   3   1 1744.48 202.582  15
  -7  -3  -1 16354.4 479.349  15
  -7  -3  -1 14861.9 547.646  16
  -7   3  -1 15726.3 442.582   2
  -7   3  -1 17079.4 482.867  15
  -7   3   1 16516.7 444.333   2
  -7  -3   1 16599.0 573.240  16
  -7  -3   1 15648.5 542.011   8
  -7   3   1 16081.3 509.216  15
  -8  -3  -1 18.7680 73.1503  16
  -8  -3   1 51.7556 102.837  16
  -8  -3  -1 130.365 81.0604  15
  -8   3  -1 52.5726 69.1359  15
  -8  -3  -1 13.3870 67.0745  10
  -8   3   1 20.6979 58.8412  15
  -9  -3  -1 31623.0 654.549  16
  -9   3  -1 32078.5 539.889  15
  -9   3  -1 31664.4 456.115   7
  -9  -3   1 35366.5 667.251   9
  -9  -3  -1 34062.7 541.917  10
  -9   3   1 32085.6 603.726  15
  -9  -3   1 35083.7 775.536  16
 -10   3  -1 12329.4 269.974  15
 -10   3  -1 12481.4 209.012   7
 -10  -3   1 12850.6 320.829   9
 -10   3   1 11500.6 277.205  15
 -10  -3  -1 13560.6 251.885  10
 -10  -3  -1 12645.2 311.717   9
 -10  -3   1 13157.7 388.213  16
 -11   3   1 5395.61 139.539  15
 -11   3  -1 5394.24 127.241  15
 -11  -3  -1 5515.65 139.721   9
 -11  -3   1 5837.83 182.309  16
   0  -4   1 28.0156 122.540   3
   0   4   1 22.2583 106.092   1
  -1  -4   1 452550. 3008.33   3
   1  -4   1 449922. 2915.79   3
   1   4   1 490677. 3610.36   1
  -1   4   1 476570. 2725.70   1
  -2  -4   1 4172.09 303.059   3
   2  -4   1 3377.80 248.736   3
  -2   4   1 4034.18 191.752   2
   2   4   1 3839.40 330.860   1
  -3   4   1 497968. 2137.09   2
  -3   4  -1 495249. 2665.27   2
  -3  -4   1 497511. 3211.70   3
  -4   4  -1 167.135 87.5390   2
   4   4   1 86.8197 127.062   1
  -4   4   1 105.227 59.9200   2
  -4  -4   1 96.2106 103.961   3
  -5  -4   1 135208. 1519.64   3
  -5   4  -1 149207. 1376.86   2
  -5   4   1 142070. 1171.94  17
  -5  -4   1 136418. 1275.20  10
  -5  -4  -1 144889. 1300.77  10
   5   4   1 129284. 1790.64   1
  -5  -4   1 148538. 1560.29  16
  -5   4   1 153462. 1239.81   2
  -6   4   1 5599.92 322.628  15
  -6  -4   1 4850.18 244.293  10
  -6  -4   1 4440.85 291.104   8
  -6   4  -1 5079.31 244.211  15
  -6  -4  -1 5240.15 265.871  10
  -6   4  -1 5191.84 260.749   2
  -6  -4   1 5110.36 308.501  16
  -7   4  -1 360525. 2010.74  15
  -7  -4  -1 363693. 2524.00  16
  -7  -4  -1 365524. 2216.82  10
  -7   4   1 364139. 2356.66  15
  -8   4  -1 1108.56 114.030  15
  -8   4   1 926.390 118.288  15
  -8  -4  -1 1058.34 127.793  10
  -8  -4  -1 1168.00 144.397  16
  -8  -4   1 1096.12 163.960  16
  -9   4   1 30681.1 518.507  15
  -9  -4  -1 33786.0 509.479  10
  -9  -4   1 33775.7 604.500   9
  -9   4  -1 31268.2 465.866  15
  -9  -4  -1 32094.2 567.168  16
  -9   4  -1 31246.9 413.601   7
  -9  -4   1 34621.8 724.733  16
 -10   4  -1 611.105 55.4883  15
 -10   4   1 598.293 61.2045  15
 -10  -4   1 659.288 91.6000  16
 -10  -4   1 624.672 70.5599   9
 -10  -4  -1 701.397 74.5716   9
 -10  -4  -1 825.022 60.5630  10
 -10   4  -1 583.430 41.6846   7
   0  -5   1 145.772 105.347   3
   0   5   1 163.171 109.771   1
   1  -5   1 58662.1 1004.99   3
  -1  -5   1 60714.3 1034.49   3
   1   5   1 63958.4 1212.52   1
  -1   5   1 65885.7 1019.51   1
  -2   5   1 34.0387 71.1037   1
  -2  -5   1 156.971 106.391   3
   2  -5   1 79.3624 98.9958   3
   2   5   1 62.5845 134.719   1
  -3  -5   1 29905.7 753.675   3
  -3  -5  -1 30749.4 684.439  13
  -3   5   1 29146.9 578.855  17
  -3   5  -1 31952.9 691.704   2
  -3  -5   1 31055.5 648.871  10
  -3  -5  -1 31347.8 603.547  10
   3   5   1 30320.7 899.256   1
  -4  -5  -1 2159.05 201.317  13
  -4  -5   1 1769.36 171.437  10
  -4  -5   1 1875.34 210.391   3
  -4   5   1 1817.24 150.654  17
  -4  -5   1 1863.17 189.945  16
  -4   5  -1 1890.76 173.664   2
  -4  -5   1 1772.24 152.533  12
   4   5   1 2442.75 282.405   1
  -4  -5  -1 1835.61 163.609  10
  -4  -5  -1 1803.07 160.122   7
  -5  -5  -1 72218.0 1037.49  13
  -5   5   1 65363.7 819.415  17
   5  -5   1 54932.9 1422.67  11
  -5  -5   1 62271.9 890.284  10
  -5  -5  -1 63508.7 884.015  10
  -5   5  -1 62872.2 894.911   2
   5   5   1 57057.9 1304.51   1
  -5  -5   1 63928.8 1045.91  16
  -5  -5   1 62318.1 1110.83   3
  -6   5   1 11.1889 42.2984  17
  -6  -5   1 110.982 86.2986  16
   6  -5   1-73.1712 217.454  11
  -6   5   1-92.9658 83.9356  15
  -6  -5   1 19.7574 64.8791  10
  -6  -5  -1 14.8173 76.0315  10
  -7  -5   1 7898.67 389.854  16
  -7  -5   1 7973.48 293.992  10
   7  -5   1 7763.68 530.837  11
  -7  -5  -1 6993.45 284.891  10
  -8   5   1 1969.27 147.767  15
  -8  -5  -1 2178.36 157.881  10
  -8  -5   1 2137.45 195.946  16
   8  -5   1 2585.44 322.826  11
  -9  -5   1 40703.3 553.562   9
  -9   5   1 40246.2 511.517  15
  -9   5  -1 37347.8 394.027   7
  -9  -5  -1 38630.1 491.143  10
 -10  -5  -1 492.101 42.8396  10
 -10   5   1 490.081 44.9864  15
 -10  -5  -1 513.300 53.6401   9
  10  -5  -1 620.805 350.659  11
 -10  -5   1 590.489 67.6284  16
 -10  -5   1 420.229 45.9083   9
   0  -6   1-52.4804 95.8566   3
   0  -6  -1 9.06137 81.4712  13
   0   6   1 42.5777 89.6512  17
   0  -6   1 35.9411 77.1052  14
   0  -6   1 240.591 150.772  11
   0   6   1 27.6131 104.409   1
   0  -6   1 21.7795 96.4500  10
  -1  -6   1 19321.7 604.047   3
  -1  -6  -1 18698.9 496.980  10
  -1  -6   1 19579.2 553.195  14
   1  -6  -1 19926.9 585.386  13
  -1  -6  -1 21677.5 610.546  13
   1  -6   1 21257.6 611.630  14
  -1  -6   1 20107.9 583.474  10
   1   6   1 21696.9 717.197   1
  -1   6   1 20619.8 607.532   1
  -1   6   1 20908.5 551.535  17
   1  -6   1 20100.7 706.599  11
   1  -6   1 20204.3 640.427   3
  -2   6  -1 566.568 141.845   2
   2  -6   1 498.291 115.168  14
  -2  -6   1 450.280 101.207  14
  -2  -6   1 397.545 117.236   3
   2  -6   1 550.141 205.873  11
  -2  -6  -1 499.718 103.145  10
   2  -6  -1 387.253 105.514  13
  -2  -6   1 477.957 117.784  10
   2   6   1 578.375 161.949   1
  -2  -6  -1 395.453 108.631  13
  -2   6   1 392.799 100.544  17
   3  -6   1 13065.7 472.920  14
  -3  -6   1 12729.4 506.518   3
  -3  -6   1 12860.8 392.256  12
   3  -6   1 12588.6 626.819  11
  -3  -6  -1 13020.1 463.337  13
  -3   6  -1 13737.8 473.532   2
  -3  -6   1 14462.4 479.047  10
  -3  -6  -1 12583.4 391.621  10
   3   6   1 11997.3 562.409   1
  -3   6   1 13165.5 406.943  17
  -3  -6   1 12913.5 432.967  14
  -4  -6  -1 30393.8 693.150  13
   4   6   1 27753.4 913.137   1
  -4  -6   1 32533.6 669.052  14
  -4  -6   1 30713.3 796.318   3
  -4   6  -1 31277.3 679.245   2
   4  -6   1 25892.6 873.035  11
  -4  -6  -1 29800.8 606.462  10
  -4  -6   1 29192.2 556.836  12
  -4  -6   1 30518.9 729.764  16
  -4  -6   1 30049.9 653.185  10
  -4   6   1 29962.0 577.230  17
  -5  -6   1 12492.1 463.746  16
  -5  -6  -1 13589.5 436.093  13
   5  -6   1 12084.2 617.195  11
  -5  -6   1 12288.2 404.465  10
  -5  -6  -1 12635.7 396.250  10
  -5   6   1 12392.5 344.418  17
  -6  -6   1 120.099 83.1677  16
   6  -6   1 141.423 195.725  11
  -6  -6   1 133.393 76.9562  10
  -6  -6  -1 300.077 92.7237  10
  -6   6   1 156.232 66.5456  15
  -6   6   1 222.749 56.5018  17
  -7   6   1 18419.8 406.912  15
  -7  -6  -1 17522.5 421.468  10
  -7  -6   1 18388.9 530.096  16
  -8  -6   1 12878.7 282.056  10
  -8  -6  -1 11916.2 303.890  10
  -8  -6   1 12104.6 379.027  16
  -9   6   1 2501.49 91.4338  15
  -9  -6   1 2353.82 105.642   9
  -9   6  -1 2359.87 82.3647   7
  -9  -6   1 2384.89 135.254  16
  -9  -6  -1 2415.12 112.610  10
   0  -7   1 10090.5 410.853  14
   0  -7   1 10013.4 458.127   3
   0   7   1 11064.9 430.375  17
   0  -7   1 9766.73 443.145  11
   0   7   1 10104.6 465.851   1
   0  -7  -1 8950.26 388.546  13
  -1   7   1 378203. 2288.82  17
  -1  -7   1 368571. 2405.31  14
  -1  -7  -1 362183. 2436.43  13
  -1  -7   1 390595. 2787.54   3
   1  -7   1 366841. 2821.75  11
  -1   7   1 389543. 2684.94   1
  -1  -7   1 384774. 2538.91  10
  -1  -7  -1 378759. 2241.05  10
   1   7   1 380519. 2903.67   1
   1  -7   1 364055. 2383.68  14
  -2  -7   1 596.316 113.358  14
   2  -7   1 530.069 116.841  14
  -2  -7   1 473.015 102.578  12
   2  -7   1 512.022 190.093  11
   2  -7  -1 554.400 200.075  11
  -2  -7  -1 550.680 107.339  10
  -2  -7  -1 510.646 112.570  13
  -2  -7   1 509.518 121.169  10
  -2   7   1 561.613 106.925  17
  -3  -7   1 210532. 1789.60  16
  -3  -7   1 218286. 1761.88  10
   3  -7   1 222098. 1878.27  14
   3  -7   1 200673. 2110.87  11
  -3  -7   1 210856. 1696.45  14
  -3  -7  -1 200944. 1706.39  13
  -3  -7   1 212890. 1497.68  12
   3  -7  -1 187052. 2459.80  11
  -3  -7  -1 214123. 1594.08  10
  -3   7   1 211586. 1540.95  17
  -4  -7   1 1791.08 175.726  16
  -4  -7  -1 1900.56 174.782  13
   4  -7   1 1923.21 260.693  11
   4  -7  -1 1610.32 308.168  11
  -4  -7   1 1894.70 168.783  10
  -4  -7  -1 1789.29 155.601  10
  -4   7   1 1613.10 136.875  17
  -4  -7   1 1696.32 147.523  14
  -5  -7   1 354868. 2209.90  16
   5  -7   1 375282. 2881.37  11
   5  -7  -1 379709. 3553.39  11
  -5  -7   1 360797. 2025.77  10
  -5  -7  -1 366727. 1942.83  10
  -5   7   1 347585. 1647.44  17
   6  -7   1 590.508 175.875  11
   6  -7  -1 797.015 261.120  11
  -6  -7   1 382.293 76.4084  10
  -6  -7  -1 251.339 75.5267  10
  -6   7   1 258.583 51.0804  17
  -6  -7   1 904.809 122.041  16
  -7  -7   1 81275.6 768.384  10
   7  -7  -1 83763.5 1465.31  11
  -7  -7  -1 75725.6 763.439  10
  -7  -7   1 75485.4 877.453  16
   8  -7  -1 810.392 176.865  11
  -8  -7  -1 978.039 79.1586  10
   8  -7   1 1083.25 112.740   5
  -8  -7   1 1003.64 87.2015  16
  -8  -7   1 875.536 67.5780   9
   0  -8   1 24.5748 65.1065  14
   0   8   1 15.7997 73.6326  17
   1  -8  -1 3483.77 229.626  14
   1  -8   1 3415.47 229.754  14
  -1  -8   1 2995.44 200.857  14
  -1   8   1 3709.79 220.248  17
  -1  -8  -1 3232.39 196.286  10
   1  -8   1 3605.09 224.739   5
  -2   8   1 2272.12 163.639  17
  -2  -8   1 1921.60 156.818  14
  -2  -8   1 2117.85 156.783  12
   2  -8  -1 2084.14 208.718  11
  -2  -8   1 2193.48 184.851  10
  -2  -8  -1 2567.37 176.596  10
   2  -8  -1 2226.55 183.254  14
   2  -8   1 2139.58 227.758  11
   2  -8   1 2211.54 185.441  14
   3  -8   1 4390.47 243.653  14
  -3  -8   1 4113.11 211.925  14
   3  -8   1 4599.96 300.805  11
   3  -8  -1 3675.17 276.138  11
  -3  -8  -1 4234.43 215.592  10
  -3   8   1 4375.84 208.223  17
  -4  -8   1 362.036 70.0500  14
  -4   8   1 289.361 63.7078  17
   4  -8   1 414.829 146.913  11
   4  -8  -1 227.540 136.392  11
  -4  -8  -1 333.430 71.9985  10
  -4  -8  -1 315.196 74.2523  14
  -4  -8   1 243.119 73.7848  10
  -5  -8  -1 718.137 83.8751  14
   5  -8   1 669.782 142.286  11
   5  -8  -1 580.174 158.000  11
  -5  -8   1 473.334 77.3952  10
  -5  -8  -1 517.460 78.7794  10
  -5   8   1 903.531 82.5546  17
   6  -8   1-20.8415 76.4535   5
   6  -8   1 130.997 95.3172  11
   6  -8  -1 225.475 132.607  11
  -6  -8   1-3.49395 38.6828  10
  -6  -8  -1 26.5213 41.2308  10
   7  -8   1 4850.99 192.078  11
   7  -8  -1 4849.86 232.260  11
  -7  -8  -1 4570.41 150.721  10
   7  -8   1 4983.00 192.554   5
   0  -9   1 301.814 72.3956  14
   0  -9  -1 354.368 72.7892  14
   0  -9   1 281.475 71.1128  12
   1  -9  -1 1107.44 109.196  14
   1  -9   1 1089.44 111.873  14
  -1  -9  -1 1341.46 120.451  14
  -1  -9   1 1100.96 95.5945  12
  -2  -9   1 14682.0 344.701  14
  -2  -9  -1 15384.6 366.115  14
  -2  -9  -1 14563.6 301.296  10
   2  -9   1 14708.5 340.036   5
  -3  -9   1 382.516 61.6528  14
  -3  -9  -1 495.582 71.5170  14
   3  -9  -1 553.183 83.5986  11
   3  -9   1 310.244 72.2819   5
  -4  -9  -1 976.811 82.0984  14
   4  -9  -1 841.184 93.0765  11
  -4  -9  -1 768.621 68.0854  10
   4  -9   1 1024.26 103.940   5
  -5  -9  -1 657.013 56.1435  10
   5  -9   1 684.508 75.5706   5
   5  -9  -1 467.311 71.9012  11
   0 -10  -1 31.6260 27.0872  14
   1 -10  -1 196518. 863.564  14
   1 -10   1 196110. 801.980  12
  -2 -10  -1 1052.57 66.2641  14
   2 -10   1 1025.60 62.7797  12
   0   0  -2 460353. 1415.99   2
   0   0   2 473561. 2740.32   1
   1   0   2 1073.22 162.293   1
  -1   0  -2 962.201 68.6394   2
  -1   0   2 940.583 151.462   1
  -2   0   2 21364.9 573.433   1
  -2   0  -2 22133.0 375.560   2
  -3   0  -2 12926.6 330.072   2
  -3   0   2 14996.5 743.170   4
  -3   0   2 13394.4 448.383   1
   3   0   2 15606.2 550.726   1
  -4   0  -2 796387. 2933.27   2
   4   0   2 815575. 3606.40   1
  -4   0   2 897276. 5393.77   4
  -4   0   2 882487. 3634.68   3
  -5   0   2 27306.0 628.631   3
  -5   0   2 25424.0 932.182   4
  -5   0  -2 24844.5 568.391   2
  -6   0   2 76177.8 1097.05  16
  -6   0  -2 72880.4 1032.80   2
  -6   0  -2 79983.3 1197.81  15
  -6   0  -2 74858.9 964.050   7
  -6   0   2 70430.5 922.559   9
  -6   0   2 81129.6 1385.39   8
  -7   0  -2 6955.89 342.564   2
  -7   0   2 7231.73 396.947  15
  -7   0   2 8248.25 379.647  16
  -7   0  -2 7612.62 324.093   7
  -7   0  -2 7658.02 379.288  15
  -7   0   2 6581.48 290.903   9
  -7   0   2 7276.12 391.203   8
  -8   0   2 527449. 2913.41  15
  -8   0  -2 522445. 2409.30   7
  -8   0   2 528037. 2954.01  16
  -8   0   2 529980. 2922.99   8
  -9   0  -2 13728.5 397.415  15
  -9   0   2 13787.0 408.435  15
  -9   0  -2 12895.7 310.271   7
  -9   0   2 13697.4 406.492  16
 -10   0  -2 105781. 669.050   7
 -10   0   2 109632. 889.754  16
   0   1   2 261.022 115.241   1
   0  -1   2 41.7651 107.976   1
  -1   1   2 544.909 140.529   1
   1  -1   2 374.810 110.067   1
  -1  -1   2 326.195 132.029   1
   1   1   2 416.995 125.451   1
  -1   1  -2 520.726 100.213   2
   2   1   2 9267.32 409.492   1
   2  -1   2 7970.80 346.490   1
  -2  -1   2 9355.57 420.463   3
  -2   1  -2 8304.76 289.818   2
  -2   1   2 8931.21 374.397   1
  -3   1   2 5924.90 257.744   1
  -3  -1   2 7314.53 404.086   3
  -3  -1  -2 6975.19 213.096   2
   3  -1   2 6747.65 347.290   1
   3   1   2 7931.28 391.762   1
  -3   1  -2 5940.95 249.396   2
  -3  -1   2 6707.88 474.910   4
  -3   1   2 7239.97 490.090   4
  -4   1   2 411.358 168.174   4
  -4  -1   2 334.452 165.100   4
  -4   1  -2 142.421 70.6664   2
  -4  -1   2 104.706 104.497   3
  -4  -1  -2 43.3735 47.0973   2
   4   1   2 256.957 105.468   1
   4  -1   2 29.9089 70.6975   1
  -5   1  -2 217.289 77.7896   2
  -5  -1   2 299.239 100.472   3
  -5   1   2 253.386 148.644   4
  -6  -1  -2 5037.71 303.512  15
  -6   1  -2 5919.59 354.697  15
  -6  -1   2 6779.22 344.360  16
  -6  -1  -2 5831.18 277.994   7
  -6   1  -2 7728.55 338.875   7
  -6   1  -2 5048.58 272.286   2
  -6  -1   2 4833.25 255.513   9
  -6   1   2 5361.20 348.290   8
  -6  -1   2 5796.44 394.810   8
  -7  -1  -2 1767.82 197.419  15
  -7   1  -2 1626.20 187.028  15
  -7   1   2 1527.22 204.136  15
  -7   1   2 1522.11 179.794   8
  -7  -1  -2 1535.20 150.282   7
  -7   1  -2 1510.42 155.245   7
  -7   1  -2 1431.34 155.375   2
  -7  -1   2 1524.11 156.564   9
  -7  -1   2 1424.24 201.272   8
  -7  -1   2 1444.01 178.413  16
  -8   1   2 125.318 77.6276   8
  -8  -1  -2 157.974 114.327  15
  -8   1  -2 94.4892 96.0642  15
  -8   1   2 38.8203 72.7565  15
  -8  -1  -2 26.7247 64.4955   7
  -8   1  -2 143.557 69.1595   7
  -8  -1   2 1290.22 144.712   9
  -8  -1   2 974.375 151.657   8
  -8  -1   2 133.490 93.6942  16
  -9  -1   2 429.661 98.4208  16
  -9  -1  -2 435.234 67.9639   7
  -9  -1  -2 653.178 119.892  15
  -9   1   2 488.653 95.8596  15
  -9   1  -2 506.405 75.7871   7
  -9   1  -2 525.508 102.236  15
 -10   1  -2 2349.78 100.407   7
 -10   1   2 1960.09 119.476  15
 -10  -1  -2 2256.63 102.994  10
 -10  -1   2 2157.13 141.666  16
   0  -2   2 30937.5 743.742   3
   0   2   2 27028.4 666.567   1
   1   2   2 3543.94 268.590   1
  -1   2   2 3834.09 261.092   1
  -1  -2   2 4502.81 337.247   3
   1  -2   2 4081.70 281.443   3
  -2  -2   2 2361.81 258.642   3
   2   2   2 2215.43 228.176   1
   2  -2   2 3683.92 258.588   3
  -2   2   2 3631.92 234.161   1
  -2   2  -2 2147.11 181.518   2
  -2  -2   2 2638.53 313.273   4
   3  -2   2 4399.03 235.898   3
   3   2   2 4536.20 295.858   1
  -3  -2   2 5388.19 364.613   3
  -3   2  -2 5009.10 252.178   2
  -3   2   2 5637.39 271.103   1
  -3  -2   2 4604.46 406.172   4
  -3   2   2 5147.65 389.655   4
   4   2   2 14311.3 503.427   1
  -4   2  -2 15525.2 430.851   2
  -4   2   2 15436.9 647.394   4
  -5  -2  -2 2969.78 243.856  15
  -5  -2   2 2479.27 229.049   3
   5   2   2 2252.75 222.095   1
  -5  -2   2 2920.91 292.835   8
  -5  -2  -2 2660.91 179.075   7
  -5   2  -2 2434.06 185.906   2
  -5   2   2 2462.77 281.487   4
  -6  -2  -2 4850.13 295.062  15
  -6   2  -2 5300.68 327.376  15
  -6  -2  -2 3983.98 221.742   7
  -6   2  -2 3577.16 220.906   2
  -6   2   2 4182.44 284.120   8
  -7  -2   2 61.2286 103.891   8
  -7  -2  -2 276.132 124.284  15
  -7   2  -2-2.50168 97.5477  15
  -7  -2   2 106.059 101.401  16
  -7   2   2 72.4519 94.3144  15
  -7   2  -2 46.9374 69.0093   2
  -7  -2  -2 47.6894 70.1530   7
  -7   2  -2 80.1705 74.8427   7
  -7  -2   2 164.481 88.5472   9
  -7   2   2 97.4792 74.0384   8
  -8   2  -2 5060.50 253.201  15
  -8   2   2 5430.83 305.298  15
  -8  -2  -2 7298.65 279.966   7
  -8   2  -2 5165.41 225.627   7
  -8  -2   2 5926.27 330.368  16
  -8  -2   2 6533.93 289.033   9
  -8  -2   2 6480.76 349.848   8
  -9   2  -2 3267.63 174.430  15
  -9   2   2 3249.32 195.801  15
  -9  -2  -2 3131.08 150.665   7
  -9   2  -2 3270.96 151.423   7
  -9  -2   2 3615.07 188.467   9
  -9  -2   2 3286.06 227.560  16
 -10   2  -2 2487.69 120.266  15
 -10   2   2 2273.17 125.555  15
 -10   2  -2 2340.31 93.7163   7
 -10  -2  -2 2676.60 115.319  10
 -10  -2   2 2561.71 152.421  16
   0   3   2 663.431 156.145   1
   0  -3   2 3.71485 119.205   3
   1   3   2 24052.6 728.676   1
  -1  -3   2 27184.8 774.437   3
   1  -3   2 28973.7 777.168   3
  -1   3   2 23227.5 600.751   1
  -1  -3   2 27337.8 796.760   4
  -2  -3   2 941226. 4726.13   3
   2  -3   2 949027. 3998.59   3
  -2   3  -2 944453. 3792.26   2
   3   3   2 19212.1 638.805   1
  -3  -3   2 23060.9 770.788   3
  -3   3   2 24082.6 544.740   1
  -3   3  -2 20326.2 515.000   2
  -3   3   2 21996.1 774.350   4
  -4  -3   2 41818.0 1031.29   3
  -4   3  -2 39967.1 716.465   2
  -4   3   2 40720.4 1047.48   4
  -5  -3   2 171.954 95.0344  16
  -5  -3   2 7.36175 115.281   8
  -5   3  -2 59.7819 56.4472   2
  -5  -3   2 222.732 111.700   3
  -5  -3  -2 191.042 93.9454  13
   5   3   2 130.019 102.519   1
  -5  -3  -2 105.091 79.0873   7
  -5   3   2 329.104 104.349  17
  -6  -3   2 310562. 2309.48  16
  -6   3  -2 319246. 2058.62  15
  -6  -3  -2 284985. 1834.28   7
   6  -3   2 272260. 2323.76   5
  -6   3  -2 285111. 1897.51   2
  -6   3   2 292205. 1792.98  17
  -6  -3   2 303180. 2670.19   8
  -7   3  -2 3934.87 218.809  15
  -7   3   2 4226.75 297.460  15
  -7  -3  -2 4324.06 222.079   7
  -7  -3   2 4041.96 294.912   8
  -8   3  -2 94906.1 930.690  15
  -8   3   2 94370.4 1162.40  15
  -8   3  -2 96299.3 903.366   7
  -8  -3   2 98156.2 1243.95   8
  -8  -3  -2 99014.0 980.364   7
  -8  -3   2 99285.1 1285.53  16
  -9   3  -2 888.886 86.9201  15
  -9   3  -2 641.575 66.8402   7
  -9  -3   2 725.003 116.429  16
  -9  -3  -2 649.570 83.8327  10
  -9   3   2 661.072 90.4637  15
  -9  -3   2 821.758 89.4940   9
  -9  -3  -2 525.794 68.8214   9
 -10   3   2 246580. 1150.13  15
 -10  -3   2 253236. 1397.86  16
 -10   3  -2 246634. 855.093   7
 -10  -3  -2 255619. 969.384  10
   0  -4   2 64206.4 1177.13   3
   0   4   2 59981.6 1111.00   1
   1  -4   2 897.193 165.466   3
  -1   4   2 470.434 128.130   1
  -1  -4   2 554.853 162.043   3
  -2   4   2 1216.71 146.495   1
   2  -4   2 992.895 165.143   3
  -2  -4   2 1037.61 201.428   3
  -2   4  -2 972.761 150.062   2
  -3  -4   2 2609.65 275.707   3
  -3  -4  -2 2711.26 185.268   7
  -3  -4  -2 2811.25 224.343  13
  -3   4   2 2605.24 257.729   4
  -3  -4   2 2507.36 183.328  12
  -3   4  -2 2419.95 198.131   2
  -3   4   2 2827.04 220.164  17
   3   4   2 2464.02 274.948   1
  -4   4   2 39414.4 748.355  17
  -4  -4  -2 40486.2 690.315   7
   4   4   2 35613.4 954.793   1
  -4  -4  -2 38426.5 788.335  13
  -4  -4   2 42803.9 731.304  12
   4  -4   2 38421.1 936.587  11
  -4  -4   2 37949.0 756.868  10
  -4   4  -2 37799.6 722.216   2
  -4  -4   2 39384.1 949.618   8
  -5  -4   2 803.206 148.417  16
  -5   4   2 609.813 105.344  17
  -5  -4  -2 970.741 122.654   7
  -5  -4  -2 760.305 124.412  13
  -5  -4   2 913.168 175.997   3
   5   4   2 611.669 158.382   1
  -5  -4   2 571.855 153.759   8
  -5   4  -2 510.533 98.2141   2
  -6   4   2 1878.13 145.064  17
  -6  -4  -2 1453.75 141.560   7
  -6  -4   2 1338.67 180.036  16
   6  -4   2 1425.68 207.022   5
  -6  -4   2 1254.67 176.037   8
  -7  -4   2 11.1301 90.5662  16
  -7  -4   2 23.6250 72.7625   8
  -7   4   2-3.07997 81.6266  15
  -7  -4  -2 46.2299 58.6762   7
  -7  -4  -2 123.343 88.8514  10
   7  -4   2 238.547 111.196   5
  -8   4  -2 23503.0 383.156  15
  -8   4   2 23334.6 513.233  15
  -8  -4  -2 28391.9 500.781   7
  -8   4  -2 25217.9 428.943   7
  -8  -4  -2 27027.5 543.487  10
  -8  -4   2 26186.7 641.985  16
  -9   4  -2 1722.44 88.6527  15
  -9   4   2 1705.71 120.664  15
  -9  -4  -2 1513.29 97.3514   9
  -9  -4   2 1741.98 153.762  16
  -9   4  -2 1660.16 89.4577   7
  -9  -4  -2 1738.30 111.237  10
 -10   4  -2 1900.32 64.7440   7
 -10  -4  -2 1992.69 81.0036  10
 -10  -4   2 1948.87 114.071  16
   0   5   2 100.772 110.901   1
   0   5   2-58.1609 95.6966  17
   0  -5  -2 79.0237 95.4161  13
   0  -5   2 55.1887 91.6931   5
  -1   5   2 2443.18 228.913   1
  -1  -5   2 2166.40 259.092   3
   1  -5   2 2449.44 249.086   3
   1  -5   2 2037.38 209.835  14
  -1  -5   2 2123.66 210.755  14
   1  -5  -2 1962.92 200.925  13
  -1  -5  -2 1942.60 196.350  13
   1  -5   2 2309.69 243.754  11
  -1  -5   2 1884.29 171.974   5
   1   5   2 2595.01 238.195  17
   1   5   2 2622.76 304.109   1
  -1   5   2 2360.66 210.420  17
   1  -5   2 2051.59 213.680   5
  -2   5   2 102102. 1252.22   1
  -2  -5  -2 96978.6 1160.68   7
  -2  -5   2 110301. 1706.64   3
  -2  -5   2 89359.4 1212.48  14
   2  -5  -2 102819. 1334.62  13
  -2  -5  -2 113096. 1342.68  13
  -2  -5   2 96795.2 1163.83  12
   2  -5   2 96438.7 1380.58  11
  -2   5  -2 90995.5 1285.81   2
  -2  -5   2 94117.3 1277.18  10
   2   5   2 111377. 1926.10   1
  -2  -5  -2 94413.9 980.282  10
  -2   5   2 100519. 1239.61  17
  -3  -5  -2 6107.35 301.317   7
  -3  -5   2 7177.18 443.172   3
  -3  -5   2 6337.54 318.704  14
  -3  -5  -2 5799.86 312.237  13
  -3  -5   2 6207.71 295.426  12
   3  -5   2 5780.38 368.830  11
  -3  -5   2 5734.30 309.665  10
  -3   5  -2 5911.56 306.025   2
  -3  -5  -2 6205.37 277.044  10
  -3   5   2 6082.08 294.757  17
   3   5   2 6124.31 442.008   1
   4   5   2 1901.04 262.185   1
  -4  -5   2 2405.47 221.282  16
  -4  -5   2 2763.48 288.339   3
  -4  -5  -2 2060.01 197.477  13
   4  -5   2 2260.04 256.658  11
  -4  -5   2 2197.34 189.945  10
  -4   5  -2 2320.96 191.481   2
  -4  -5  -2 2549.13 185.254  10
  -4   5   2 2261.75 179.027  17
  -5  -5   2 1064.87 163.782  16
  -5  -5  -2 1241.30 137.562   7
  -5  -5  -2 1356.85 156.188  13
   5  -5   2 1245.60 215.715  11
  -5  -5   2 1025.36 127.716  10
  -5  -5  -2 1020.07 130.249  10
  -5   5   2 946.397 114.534  17
  -6  -5   2 64554.8 1079.66  16
  -6  -5  -2 68796.8 883.312   7
   6  -5   2 73112.7 1151.95  11
  -6  -5  -2 67290.7 873.676  10
   6  -5   2 76983.3 1244.30   5
  -6   5   2 64059.1 759.355  17
  -7  -5   2 3894.21 264.908  16
  -7   5   2 3607.33 156.049  17
  -7   5   2 3902.56 236.254  15
  -7  -5  -2 3636.14 187.274   7
  -7  -5  -2 3616.59 201.719  10
   7  -5   2 4127.72 272.083   5
  -8   5  -2 13386.2 276.059   7
  -8  -5  -2 13204.6 316.668  10
  -9   5   2 580.686 60.5075  15
  -9   5  -2 550.275 46.4124   7
  -9  -5  -2 625.438 62.0413  10
  -9  -5  -2 489.155 51.4152   9
  -9  -5   2 671.145 86.5203  16
   0   6   2 303079. 2526.43   1
   0  -6   2 313190. 2339.59  14
   0  -6   2 313175. 2449.07   3
   0  -6  -2 319204. 2339.53  13
   0  -6   2 292426. 2027.08   5
   0   6   2 325870. 2227.27  17
  -1   6   2 1554.15 187.955   1
   1  -6   2 1691.87 192.284  14
  -1  -6   2 1739.34 185.192  14
  -1  -6   2 1772.53 205.630   3
   1  -6   2 1532.41 180.256   3
   1  -6  -2 2428.21 223.524  13
  -1  -6  -2 1547.33 178.978  13
   1  -6   2 1708.00 195.864   5
   1   6   2 2062.28 209.621  17
  -1   6   2 1487.11 161.905  17
   1   6   2 1692.45 234.772   1
  -2  -6   2 8811.77 372.809  14
  -2  -6   2 9305.49 439.381   3
   2  -6  -2 9408.03 405.144  13
  -2  -6  -2 8625.53 380.502  13
  -2  -6   2 9806.31 380.758  12
   2  -6   2 9481.10 435.728  11
  -2   6  -2 9153.16 430.296   2
   2  -6   2 9147.71 405.821   5
  -2   6   2 9005.79 349.367  17
   2   6   2 10558.2 543.694   1
  -3  -6   2 5350.56 279.709  14
  -3  -6  -2 5057.91 289.505  13
  -3  -6   2 5179.42 260.596  12
   3  -6   2 5028.33 326.897  11
  -3  -6   2 5602.71 294.226  10
  -3  -6  -2 5537.50 243.228  10
  -3   6   2 5288.73 260.724  17
  -4  -6   2 425349. 2608.44  16
  -4   6   2 434714. 2183.46  17
  -4  -6  -2 437251. 2600.50  13
  -4  -6   2 418963. 2206.64  12
   4  -6   2 444435. 2785.06  11
  -4  -6   2 434188. 2378.62  10
  -4  -6  -2 423003. 2104.68  10
  -5   6   2 10895.5 324.730  17
  -5  -6  -2 11990.8 404.257  13
   5  -6   2 12907.4 484.639  11
  -5  -6   2 11500.7 424.541  16
  -5  -6   2 11122.9 356.725  10
  -5  -6  -2 11018.6 338.492  10
   5  -6   2 12978.4 483.117   5
  -6  -6   2 37272.9 713.789  16
  -6   6   2 37449.8 683.606  15
  -6  -6  -2 37712.0 604.692  13
  -6   6   2 37000.6 527.944  17
  -7  -6   2 3450.73 213.897  16
  -7   6   2 3263.48 170.114  15
  -7  -6  -2 3403.35 167.910  10
   7  -6   2 3716.74 217.826   5
  -7   6   2 3468.43 129.932  17
  -8   6   2 283395. 1246.94  15
  -8  -6   2 284290. 1572.59  16
   9  -6  -2 15909.0 715.032  11
   0  -7   2 209.433 94.6471  14
   0  -7  -2 2.26716 74.7617  13
   0  -7   2 248.357 89.8968   5
   0   7   2-22.8581 78.8506  17
   1  -7   2 184.127 88.5467  14
  -1  -7   2 109.867 75.7238  14
   1  -7  -2 36.7351 68.8508  13
  -1  -7  -2 117.178 86.5924  13
  -1  -7   2 365.259 116.546  12
   1  -7   2 97.0827 85.6667   5
   1   7   2 119.684 91.1610  17
  -1   7   2 199.549 82.3262  17
  -2  -7   2 62533.0 909.576  14
   2  -7  -2 66379.6 951.504  13
  -2  -7  -2 65212.0 980.437  13
  -2  -7   2 68545.7 947.511  12
   2  -7   2 62660.3 934.145   5
  -2   7   2 66423.5 895.604  17
  -3   7   2 1987.97 158.389  17
  -3  -7   2 1915.54 181.090  16
  -3  -7   2 2003.04 160.154  14
  -3  -7  -2 1820.11 170.936  13
  -3  -7   2 2000.98 157.338  12
  -3  -7  -2 1987.08 142.088  10
   3  -7   2 1817.27 185.731   5
  -4  -7  -2 586.424 102.455  13
   4  -7   2 763.119 146.939  11
   4  -7  -2 351.578 163.482  11
   4  -7   2 820.672 145.472   5
  -4   7   2 518.721 85.6868  17
  -4  -7   2 891.262 129.466  16
  -5  -7   2 269.260 78.1162  16
  -5  -7  -2 2.67238 45.7045  13
   5  -7   2 140.338 98.3025  11
   5  -7  -2-153.535 176.306  11
  -5  -7  -2 15.5176 43.3049  10
   5  -7   2 305.774 107.562   5
  -5   7   2 4.11229 37.1047  17
  -6  -7   2 48488.8 698.175  16
  -6  -7  -2 47032.5 551.391  10
  -7  -7   2 237.229 56.1978  16
   7  -7  -2 340.993 151.689  11
  -7  -7  -2 345.341 52.3890  10
   7  -7   2 290.802 69.1882   5
   0  -8  -2 191252. 1508.72  13
   0  -8   2 194235. 1483.61  12
  -1  -8  -2 3880.25 222.419  13
  -1  -8   2 4291.63 223.175  12
   1  -8   2 4229.53 204.700   5
  -1   8   2 4144.36 201.104  17
   2  -8  -2 5085.92 231.977  14
  -2  -8  -2 4962.38 240.793  13
  -2  -8   2 5099.55 221.559  12
   2  -8   2 5014.57 222.474   5
  -2   8   2 4914.55 205.281  17
  -3  -8   2 2882.00 177.818  16
  -3  -8  -2 2665.03 167.977  13
  -3  -8   2 3087.42 160.824  12
   3  -8   2 2638.31 163.892   5
  -3   8   2 2634.25 143.240  17
  -4  -8   2 140168. 1102.33  16
  -4  -8  -2 145139. 922.136  10
  -5  -8   2 3478.14 161.967  16
   5  -8  -2 3749.86 208.014  11
  -5  -8  -2 3264.21 131.156  10
   5  -8   2 3933.29 174.977   5
  -5   8   2 3333.46 123.983  17
   6  -8  -2 20634.7 431.798  11
  -6  -8  -2 16230.8 258.420  10
   6  -8   2 21586.5 347.664   5
  -6  -8   2 17234.1 299.000  16
   0  -9   2 91.2347 30.2256  16
   0  -9  -2 135.828 44.7353  14
   1  -9  -2 6039.58 194.728  14
  -1  -9  -2 5671.14 198.729  14
  -1  -9   2 5788.13 183.934  12
   1  -9   2 6118.33 204.293  12
  -1   9   2 6204.20 191.659  17
  -2  -9  -2 271683. 1304.55  14
  -2  -9   2 269316. 1139.78  12
   2  -9   2 277686. 1288.22  12
   2  -9   2 275990. 1139.20   5
  -2   9   2 269145. 1168.43  17
  -3  -9  -2 5962.08 179.188  14
   3  -9   2 6364.53 187.075  12
   3  -9   2 6589.76 189.306   5
  -3   9   2 5797.73 157.415  17
  -4  -9  -2 10795.0 204.834  14
   4  -9   2 10796.4 218.776  12
   4  -9   2 10992.5 219.361   5
   0   0   3 145.887 140.942   1
  -1   0   3 47768.8 1079.03   1
   1   0   3 48873.7 1056.94   1
  -2   0   3 1996.68 243.439   1
   2   0   3 2220.41 256.716   1
   3   0   3 121995. 1742.57   1
  -3   0   3 122881. 1648.79   8
  -3   0  -3 133784. 1328.39   7
  -3   0   3 130730. 2266.58   4
  -3   0   3 117812. 1651.20   3
  -4   0   3 35695.1 867.235   3
  -4   0   3 37779.2 906.583   8
  -4   0  -3 39460.5 723.102   7
  -4   0   3 36714.8 1169.81   4
  -5   0   3 13258.1 555.470   8
  -5   0  -3 14908.7 446.513   7
  -5   0   3 14140.8 745.444   4
  -6   0  -3 2839.71 202.929   7
  -6   0   3 2703.21 275.452   8
  -7   0   3 45333.2 871.299  15
  -7   0  -3 43425.7 697.152   7
  -7   0   3 43350.3 905.622   8
  -8   0  -3 5135.11 217.007   7
  -8   0   3 5125.11 267.899   8
  -9   0  -3 16037.3 294.294   7
 -10   0  -3 40.1029 17.5383   7
   0   1   3 38869.6 1019.24   1
   0  -1   3 35372.7 934.273   1
   1  -1   3 239352. 2370.46   1
  -1  -1   3 248903. 2511.84   1
  -1   1   3 258016. 2514.93   1
   1   1   3 276240. 2678.44   1
  -1  -1   3 260190. 2435.85   3
  -2  -1   3 587.309 163.871   3
   2   1   3 567.595 178.139   1
   2  -1   3 605.645 172.443   1
  -2   1   3 550.999 137.380   1
  -3   1   3 147986. 1691.76   8
  -3  -1   3 152553. 1894.65   8
  -3  -1   3 156059. 2043.60   3
  -3  -1  -3 156247. 1416.39   7
  -3   1   3 146768. 1677.21   1
  -3   1  -3 165426. 1457.69   7
   3  -1   3 151573. 1980.51   1
   3   1   3 166872. 2175.73   1
  -3  -1   3 158296. 2440.00   4
  -3   1   3 160775. 2484.29   4
  -4  -1   3 25651.4 787.044   8
  -4  -1   3 23428.2 747.361   3
   4   1   3 23228.8 753.069   1
  -4  -1  -3 25481.3 570.875   7
  -4   1  -3 24311.2 556.010   7
  -4   1   3 23051.3 920.179   4
  -4  -1   3 26865.0 1035.86   4
   4  -1   3 22678.7 709.791   1
  -4   1   3 23230.3 686.039   8
  -5   1   3 220223. 2179.42   8
  -5  -1   3 218224. 2090.08   3
  -5  -1   3 233052. 2395.76   8
  -5  -1  -3 222600. 1673.34   7
  -5   1  -3 232930. 1734.63   7
  -5   1   3 239092. 2893.68   4
  -6  -1  -3 2831.39 202.570   7
  -6   1  -3 3250.22 220.652   7
  -6   1   3 3431.14 287.590   8
  -6  -1   3 3359.45 313.600   8
  -7   1   3 38722.9 838.032  15
  -7  -1  -3 39043.0 670.031   7
  -7   1  -3 39521.5 664.595   7
  -7   1   3 39424.3 816.519   8
  -7  -1   3 39253.0 907.914   8
  -8   1   3 9691.19 333.217  15
  -8  -1  -3 10819.6 316.305   7
  -8   1   3 10099.5 345.799   8
  -8   1  -3 10474.4 294.059   7
  -8  -1   3 10147.0 386.368   8
  -9   1   3 178046. 1128.74  15
  -9   1  -3 179670. 955.801   7
  -9  -1   3 181378. 1258.29   8
 -10   1  -3 2888.25 84.7953   7
 -10  -1  -3 2857.24 87.5284  10
   0  -2   3 47.9085 128.312   3
   0   2   3 42.6997 140.900   1
   1  -2   3 110547. 1628.74   3
  -1  -2   3 107717. 1733.90   3
   1   2   3 89002.2 1523.86   1
  -1   2   3 95903.8 1545.14   1
   2  -2   3 19832.4 688.192   3
  -2  -2   3 17090.8 672.249   3
  -2  -2   3 16207.3 615.669   8
  -2  -2  -3 17016.0 489.094   7
   2   2   3 18127.3 726.480   1
  -2  -2   3 18750.4 541.856   6
  -2   2   3 16994.1 615.156   1
  -2  -2   3 17703.9 833.753   4
  -3   2   3 154058. 1675.91   8
  -3   2   3 149145. 1561.80   1
  -3  -2   3 146477. 1813.34   8
  -3  -2   3 141815. 1934.65   3
  -3  -2  -3 155129. 1423.17   7
  -3   2  -3 164540. 1505.64   7
   3   2   3 150853. 2038.34   1
  -3  -2   3 146268. 1339.45   6
   3  -2   3 138402. 1551.05   5
  -3  -2   3 145253. 2304.75   4
  -3   2   3 150356. 2317.43   4
  -4  -2   3 680.505 126.432  16
  -4   2   3 713.825 142.929   8
  -4  -2   3 562.619 162.937   8
  -4  -2   3 456.645 151.992   3
   4   2   3 518.749 160.424   1
  -4   2  -3 766.262 125.180   7
  -4  -2  -3 555.267 110.599   7
   4  -2   3 406.966 114.023   5
  -4  -2   3 452.537 165.317   4
  -4   2   3 458.863 173.155   4
  -5  -2   3 47207.3 1084.99   8
  -5  -2   3 52146.2 905.304  16
  -5   2   3 48094.5 1248.11   4
  -5  -2   3 46766.0 1022.88   3
  -5  -2  -3 48845.0 787.678   7
  -5   2  -3 51400.7 838.851   7
  -5   2   3 51214.3 918.762  17
  -5   2   3 53191.4 1041.43   8
  -6  -2   3 18221.5 535.246  16
  -6  -2  -3 16945.4 458.686   7
  -6   2  -3 17021.5 453.915   7
  -6   2   3 16963.3 478.487  17
  -6  -2   3 17651.6 675.375   8
  -7  -2  -3 134020. 1238.98   7
  -7   2  -3 130767. 1137.58   7
  -7   2   3 134574. 1338.80   8
  -7  -2   3 133014. 1624.22   8
  -7  -2   3 135957. 1421.49  16
  -8   2   3 2496.49 153.654   8
  -8   2   3 2334.02 171.291  15
  -8  -2  -3 2648.79 159.308   7
  -8   2  -3 2558.04 144.997   7
  -8  -2   3 2437.78 191.923   8
  -8  -2   3 2613.14 186.450  16
  -9  -2  -3 8950.55 217.583   7
  -9  -2   3 8499.10 249.012  16
 -10   2  -3 5569.81 103.553   7
 -10  -2  -3 5798.61 118.601  10
   0  -3   3 5473.37 384.406   3
   0  -3   3 4295.15 350.817   8
   0  -3  -3 4071.64 287.130   7
   0  -3   3 5791.39 312.202  12
   0   3   3 4558.43 356.819   1
  -1  -3   3 28227.0 866.090   3
   1  -3   3 30099.5 866.798   3
  -1  -3   3 26011.9 788.509   8
  -1  -3  -3 24249.7 627.904   7
   1   3   3 25532.3 829.041   1
  -1  -3   3 29171.8 662.160  12
   1  -3   3 28519.2 675.928  12
  -1   3   3 28099.8 819.086   1
   1  -3   3 28555.5 734.963   5
  -2  -3   3 26400.5 806.679   8
  -2  -3   3 27289.5 866.611   3
   2  -3   3 25370.7 732.105   3
  -2  -3  -3 25301.3 607.375   7
   2   3   3 25239.2 864.496   1
  -2  -3   3 31597.6 707.031  12
  -2  -3   3 27821.0 640.436   6
  -2   3   3 29606.6 807.281   1
   2  -3   3 30338.7 821.455   5
  -3  -3   3 58719.8 1170.84   8
  -3  -3   3 62204.0 1344.98   3
  -3  -3  -3 59757.1 889.463   7
   3   3   3 52102.9 1173.73   1
  -3   3  -3 71137.8 1075.64   7
  -3  -3   3 57904.4 845.788   6
  -3   3   3 60248.8 1020.61  17
   3  -3   3 67876.4 1267.37   5
  -3   3   3 61704.9 1511.00   4
  -4  -3   3 763.952 134.185  16
  -4  -3   3 750.862 189.549   3
  -4  -3   3 824.091 166.230   8
  -4  -3  -3 888.615 132.479   7
  -4   3  -3 887.463 145.467   7
  -4   3   3 892.610 145.304  17
   4  -3   3 676.736 150.751   5
   4   3   3 848.119 184.300   1
  -4   3   3 803.233 188.367   4
  -5  -3   3 39319.8 793.064  16
  -5  -3  -3 37949.1 695.780   7
   5  -3   3 36090.0 792.261   5
  -5   3   3 38491.0 764.964  17
  -5  -3   3 36947.2 934.614   8
  -6  -3   3 164.876 89.8611  16
  -6  -3   3 119.180 107.336   8
  -6  -3  -3 49.7201 59.9737  13
  -6  -3  -3-9.59528 65.8247   7
  -6   3  -3-7.75052 68.8901   7
  -6   3   3-10.0944 59.1484  17
  -7   3   3 12768.9 456.757  15
  -7  -3  -3 13537.6 376.398   7
  -7   3  -3 13431.0 336.690   7
  -7  -3   3 12896.0 461.509   8
  -7  -3   3 13460.9 449.113  16
  -8   3   3 1097.83 113.064  15
  -8  -3  -3 1341.76 111.768   7
  -8   3  -3 1181.99 94.0032   7
  -8  -3   3 1110.78 119.879   8
  -8  -3  -3 1207.82 109.558  10
  -8  -3   3 1132.15 122.998  16
  -9   3   3 45903.7 505.893  15
  -9  -3  -3 54565.1 489.091   7
  -9   3  -3 49747.5 414.650   7
  -9  -3  -3 55270.4 520.797  10
  -9  -3   3 49862.2 580.914  16
   0  -4   3-21.7393 113.283   3
   0  -4   3-4.85851 106.225  12
   0   4   3 27.9618 104.939   1
   0   4   3 81.0889 114.146  17
  -1   4   3 230385. 2101.23  17
  -1  -4   3 217517. 2222.65   8
  -1  -4   3 218137. 2369.74   3
   1  -4   3 236490. 2414.25   3
   1   4   3 249463. 2260.81  17
  -1  -4  -3 219006. 1973.98   7
   1   4   3 229641. 2744.68   1
   1  -4  -3 228658. 1967.71  13
  -1  -4   3 240317. 1974.04  12
   1  -4   3 227999. 1907.82  12
  -1   4   3 222764. 2228.71   1
  -1   4  -3 230328. 2091.72   2
   1  -4   3 241336. 2214.81   5
  -2  -4   3 28709.8 795.909   8
  -2  -4   3 31049.9 914.091   3
  -2  -4  -3 30677.9 702.335   7
   2   4   3 34965.5 1146.52   1
  -2  -4   3 34009.9 749.636  12
  -2   4   3 33800.3 847.753   1
  -2   4  -3 27525.9 645.533   2
  -2  -4   3 30252.4 656.551   6
   2  -4   3 32032.0 824.583   5
  -2   4   3 30762.0 753.568  17
  -3  -4   3 317562. 2635.24   8
  -3  -4   3 324610. 2992.35   3
  -3  -4  -3 314992. 2118.50   7
   3   4   3 297329. 3007.81   1
  -3  -4   3 330762. 2319.27  12
  -3   4   3 334675. 3204.87   4
   3  -4   3 318078. 2559.42   5
  -3   4   3 310502. 2295.31  17
  -4  -4   3 1504.38 174.654  16
  -4  -4  -3 1576.67 161.169   7
  -4  -4  -3 1434.87 168.829  13
  -4   4  -3 2224.71 205.721   7
   4  -4   3 1446.97 190.458   5
  -4   4   3 1671.98 173.527  17
  -4  -4   3 1703.36 208.597   8
  -5  -4   3 119317. 1408.71  16
  -5  -4  -3 120493. 1220.43   7
  -5  -4  -3 115744. 1285.23  13
   5  -4   3 122909. 1472.20   5
  -5   4   3 113601. 1201.81  17
  -5  -4   3 122214. 1596.80   8
  -6  -4   3 18302.2 524.647  16
  -6  -4  -3 18409.0 454.205   7
  -6  -4  -3 17394.1 430.879  13
  -6   4  -3 19316.7 423.941   7
   6  -4   3 18276.8 515.888   5
  -6  -4  -3 17752.8 430.766  10
  -6   4   3 17379.3 408.496  17
  -6  -4   3 17720.3 547.940   8
  -7  -4   3 289459. 1982.13  16
  -7   4   3 285020. 1943.90  15
  -7  -4  -3 295465. 1651.77   7
  -7  -4  -3 293375. 1614.16  10
  -7   4   3 278341. 1297.20  17
  -7  -4   3 282899. 1843.15   8
  -8  -4  -3 3180.70 150.737   7
  -8   4  -3 2787.83 118.925   7
  -8  -4  -3 3086.04 150.962  10
  -8  -4   3 2969.91 178.657  16
  -9   4  -3 23284.7 237.091   7
  -9  -4  -3 23943.2 278.127  10
  -9  -4   3 24044.6 357.253  16
   0   5   3 21478.9 750.569   1
   0  -5  -3 19697.5 576.525  13
   0  -5   3 21126.6 587.206  12
   0   5   3 21626.1 615.921  17
   1  -5  -3 38081.7 786.283  13
  -1  -5  -3 39699.8 802.757  13
  -1  -5   3 41457.7 792.079  12
   1  -5   3 39698.2 787.370  12
  -1   5   3 40312.8 821.267  17
   2  -5  -3 445.864 115.075  13
  -2  -5  -3 470.860 117.902  13
  -2  -5   3 506.391 126.774  12
  -2  -5  -3 401.814 115.109   7
  -2  -5   3 451.695 99.0510   6
   2  -5   3 496.487 142.530   5
  -2   5   3 526.179 125.461  17
  -3  -5  -3 23080.7 580.495   7
  -3  -5  -3 19013.5 543.684  13
  -3  -5   3 25419.2 611.384  12
   3  -5   3 22399.3 651.735   5
  -3   5   3 20792.2 545.124  17
  -4  -5   3 8499.64 362.235  16
  -4  -5  -3 8853.13 349.096   7
  -4  -5  -3 7681.31 339.534  13
  -4  -5  -3 8882.12 295.316  10
   4  -5   3 8904.85 401.554   5
  -4   5   3 7508.05 302.807  17
  -5  -5   3 31748.1 668.615  16
  -5  -5  -3 33727.0 631.907   7
  -5  -5  -3 32745.8 653.097  13
  -5   5  -3 36841.4 610.831   7
  -5  -5  -3 36374.6 579.944  10
   5  -5   3 37906.6 778.679   5
  -5   5   3 29003.3 535.167  17
  -6  -5   3 1471.79 146.607  16
  -6  -5  -3 1653.06 137.498   7
  -6  -5  -3 1685.15 129.491  13
  -6   5  -3 1614.73 115.886   7
  -6  -5  -3 1548.76 120.474  10
   6  -5   3 1863.65 166.389   5
  -6   5   3 1535.49 112.269  17
  -7   5   3 3747.42 198.512  15
  -7   5  -3 3805.66 144.591   7
  -7   5   3 3772.80 134.062  17
  -7  -5   3 3762.62 204.598  16
  -8   5   3 2610.88 119.227  15
  -8   5  -3 3029.54 99.3781   7
  -8  -5  -3 2933.55 118.770  10
  -8  -5   3 2757.55 140.793  16
   0  -6  -3 9.43436 72.8361  13
   0   6   3 53.8318 73.7713  17
   1  -6  -3 12540.0 431.357  13
  -1  -6  -3 12302.2 431.673  13
  -1  -6   3 13101.7 416.607  12
   1  -6   3 12876.1 414.324  12
   1  -6   3 12286.5 417.271   5
  -1   6   3 12325.4 405.248  17
   2  -6  -3 2522.48 199.353  13
  -2  -6  -3 2202.78 192.852  13
  -2  -6   3 2352.27 193.118  12
   2  -6   3 2468.60 190.327  12
   2  -6   3 2480.57 216.095   5
  -2   6   3 2315.86 180.005  17
  -3  -6  -3 30350.5 642.411  13
  -3   6   3 31415.9 585.043  17
  -4  -6   3 18546.7 498.120  16
  -4  -6  -3 15798.4 433.458  13
  -4   6  -3 17798.8 382.320   7
  -4  -6  -3 15486.4 339.636  10
   4  -6   3 20511.7 551.663   5
  -4   6   3 14906.1 365.824  17
  -5  -6   3 2694.36 182.137  16
  -5  -6  -3 2975.30 181.160  13
  -5   6  -3 4401.45 173.566   7
  -5  -6  -3 2555.73 133.781  10
   5  -6   3 4914.48 252.095   5
  -5   6   3 2885.46 151.927  17
  -6  -6   3 2827.17 169.516  16
  -6   6   3 3188.92 182.990  15
  -6  -6  -3 3095.24 142.314  13
  -6   6  -3 2834.79 116.754   7
  -6  -6  -3 2553.15 124.273  10
   6  -6   3 3541.58 183.912   5
  -6   6   3 2966.41 129.847  17
  -7  -6  -3 8716.56 188.996  10
  -7  -6   3 8885.93 250.065  16
   0  -7  -3 21970.0 506.600  13
   0  -7   3 22679.0 497.271  12
   1  -7  -3 290802. 1787.00  13
  -1  -7  -3 284064. 1788.84  13
  -1  -7   3 286173. 1699.66  12
   1  -7   3 283925. 1687.82  12
  -1   7   3 288535. 1698.70  17
  -2  -7  -3 198.562 72.1637  13
  -2  -7   3 283.433 87.0013  12
   2  -7   3 138.776 70.3094  12
   2  -7   3 207.482 78.0982   5
  -2   7   3 288.931 68.7563  17
  -3  -7   3 161415. 1323.42  16
  -3  -7  -3 152204. 1219.38  13
   3  -7   3 158257. 1130.26  12
   3  -7   3 161935. 1230.92   5
  -3   7   3 152030. 1094.56  17
  -4  -7   3 20667.5 447.025  16
  -4  -7  -3 20647.6 419.920  13
   4  -7   3 21194.0 370.508  12
  -4   7   3 19947.6 358.549  17
  -5   7   3 248193. 1240.48  15
  -5   7   3 248094. 1061.69  17
  -6  -7   3 2322.51 123.082  16
  -6   7   3 2039.63 76.9870  17
   0  -8  -3 14.7085 37.5329  13
   0  -8   3-8.31928 49.3694  12
   0   8   3-3.31042 37.5160  17
  -1  -8  -3 883.582 85.8558  13
   1  -8   3 633.825 74.8969  12
  -1   8   3 795.814 74.2515  17
  -2  -8   3 2730.46 146.616  16
  -2  -8  -3 2659.49 134.555  13
   2  -8   3 2690.94 125.658  12
  -2   8   3 2675.96 122.020  17
  -3  -8   3 3306.06 149.293  16
  -3  -8  -3 2991.11 137.225  13
   3  -8   3 3295.05 131.135  12
  -4  -8   3 59.1018 33.8770  16
   4  -8   3-5.55483 26.8051  12
  -4   8   3 23.3716 20.2154  17
   0   0   4 608481. 4179.15   8
   0   0   4 613386. 4382.83   1
  -1   0   4 63000.7 1305.68   8
   1   0   4 63345.1 1411.66   1
   1   0   4 62921.4 1007.10   6
  -2   0   4 5085.69 388.348   8
   2   0   4 4418.88 258.635   6
  -3   0   4 12921.2 553.915   8
  -3   0  -4 13081.7 412.914   7
  -4   0   4 378531. 2906.27   8
  -4   0  -4 390294. 2153.43   7
  -5   0   4 21424.3 662.159   8
  -5   0  -4 20099.7 460.580   7
  -6   0  -4 50275.0 677.221   7
  -6   0   4 51812.3 746.773  17
  -6   0   4 51997.8 965.355   8
  -7   0  -4 546.245 78.9644   7
  -7   0   4 567.133 97.5476   8
  -8   0  -4 208540. 950.882   7
  -8   0   4 207432. 1156.11   8
   0  -1   4 461.641 202.079   8
   0   1   4 343.205 202.045   8
   0  -1   4 35.2383 117.585   3
   0  -1   4 237.639 128.234   6
   1  -1   4 8486.46 508.431   3
  -1  -1   4 7643.70 499.107   3
  -1   1   4 7126.97 451.689   8
  -1  -1   4 6933.27 445.017   8
   1   1   4 5892.06 417.079   1
  -1   1   4 6659.67 461.842   1
  -1  -1   4 6725.98 346.502   6
   1  -1   4 7499.40 381.370   6
  -2   1   4 7001.67 426.602   8
  -2  -1   4 6480.22 428.920   8
  -2  -1  -4 6772.20 321.627   7
   2  -1   4 6797.70 360.196   6
  -3   1   4 2432.77 249.692   8
  -3  -1   4 2577.49 267.312   8
  -3  -1  -4 2407.68 189.055   7
  -3   1  -4 2419.61 186.349   7
   3  -1   4 2181.44 196.878   6
  -4   1   4 252.174 117.324   8
  -4  -1   4 194.474 131.391   8
  -4  -1  -4 208.772 86.7574   7
  -4   1  -4 182.295 87.5728   7
   4  -1   4 82.4427 77.5291   6
  -5  -1   4 1679.10 212.683   8
  -5  -1  -4 1872.43 157.638   7
  -5   1  -4 1570.86 147.338   7
  -5   1   4 1795.12 205.748   8
  -6  -1  -4 5748.91 231.306   7
  -6   1  -4 6868.87 251.957   7
  -6   1   4 6151.44 262.853  17
  -6   1   4 6414.26 320.295   8
  -6  -1   4 6256.55 347.910   8
  -7  -1  -4 5046.48 198.145   7
  -7   1  -4 5017.46 181.345   7
  -7   1   4 4985.00 224.074   8
  -7  -1   4 5070.56 253.710   8
  -8   1  -4 319.549 45.2204   7
  -8   1   4 348.328 51.5358   8
  -8  -1   4 308.356 58.0528   8
   0  -2   4 6572.78 453.572   8
   0  -2   4 6579.62 372.742   6
  -1   2   4 7681.60 449.041   8
  -1  -2   4 7758.60 475.888   8
  -1  -2  -4 7139.24 358.972   7
  -1  -2   4 8556.70 412.724   6
   1  -2   4 8098.21 417.773   6
  -2   2   4 201.937 129.917   8
  -2  -2   4 432.382 160.600   8
  -2  -2  -4 400.976 112.220   7
  -2  -2   4 86.1503 90.9202   6
  -3   2   4 1723.16 209.102   8
  -3  -2   4 1542.40 215.360   8
  -3  -2  -4 1569.86 161.096   7
   3  -2   4 1920.82 196.808   6
  -4   2   4 5780.73 336.876   8
  -4  -2  -4 5162.65 262.155   7
  -4   2  -4 6155.95 276.850   7
   4  -2   4 4831.91 267.419   6
  -4   2   4 5592.45 322.262  17
  -5  -2  -4 10719.9 338.087   7
  -5   2  -4 10703.1 334.185   7
   5  -2   4 9987.96 363.886   6
  -5   2   4 11469.6 410.205  17
  -5  -2   4 9996.67 442.189   8
  -6  -2  -4 1203.48 113.823   7
  -6  -2  -4 822.915 89.5249  13
  -6   2   4 847.802 102.751  17
  -6   2   4 1058.80 124.257   8
  -6  -2   4 1080.34 145.273   8
  -7   2   4 2068.16 142.691  15
  -7  -2  -4 2258.02 132.225   7
  -7   2  -4 2264.79 118.610   7
  -7  -2   4 2167.20 155.243   8
  -8  -2  -4 3642.92 126.006   7
  -8   2  -4 3798.64 115.256   7
  -8  -2  -4 3319.96 114.911  10
  -8  -2   4 3522.99 145.307   8
   0  -3   4 382.177 168.394   8
   0  -3   4 522.699 162.960   6
   0   3   4 283.813 128.199  17
  -1  -3   4 10126.3 526.518   8
   1  -3   4 9553.33 515.823   8
  -1  -3  -4 8664.39 405.081   7
  -1  -3   4 10376.8 451.842   6
   1  -3   4 10138.6 457.793   6
   1   3   4 10898.2 488.897  17
  -1   3   4 9578.72 444.698  17
  -2  -3   4 393909. 3013.27   8
  -2  -3  -4 403796. 2582.79   7
  -2  -3   4 390939. 2491.11   6
   2  -3   4 387515. 2697.01   6
  -2   3   4 403536. 2776.09  17
  -3  -3   4 22477.8 703.214   8
  -3  -3   4 24427.2 594.880  16
  -3  -3  -4 21726.3 554.689   7
   3  -3   4 21335.0 595.319   6
  -3   3   4 23748.8 667.239  17
  -4  -3   4 26514.5 714.105   8
  -4  -3   4 29736.6 625.344  16
  -4  -3  -4 30810.2 608.969   7
  -4   3  -4 32441.4 608.146   7
   4  -3   4 25051.2 579.868   6
  -4   3   4 27280.9 639.232  17
  -5  -3  -4 23142.5 484.468   7
  -5  -3  -4 23882.3 531.803  13
   5  -3   4 22878.2 523.109   6
  -5   3   4 23852.1 538.503  17
  -5  -3   4 23275.8 628.173   8
  -6  -3  -4 412314. 1834.59   7
  -6  -3  -4 404650. 1679.73  13
  -6   3  -4 415062. 1634.78   7
  -6   3   4 407679. 1777.23  17
  -7   3  -4 42796.3 435.890   7
  -7  -3  -4 43142.1 471.153  10
  -7  -3   4 41778.8 579.464   8
  -8   3  -4 44566.5 322.337   7
  -8  -3  -4 43900.3 354.126  10
   0  -4  -4 44069.4 854.406  13
   0  -4   4 43367.6 850.280   6
   0   4   4 43529.7 860.337  17
  -1  -4   4 3574.68 279.271   8
   1  -4   4 3577.47 288.602   8
   1  -4  -4 3998.59 263.833  13
  -1  -4  -4 3410.76 244.259  13
  -1  -4   4 3581.71 251.778   6
   1  -4   4 4110.74 271.834   6
   1   4   4 3693.45 262.517  17
  -1   4   4 3481.47 256.625  17
  -2  -4   4 888.165 156.384   8
   2  -4   4 807.385 160.976   8
  -2  -4  -4 882.513 146.474  13
  -2  -4  -4 532.230 117.948   7
  -2  -4   4 1170.18 142.570   6
   2  -4   4 1070.24 167.312   6
  -2   4   4 588.370 131.201  17
  -3  -4   4 101.217 72.7391  16
  -3  -4   4 25.9997 77.7946   8
   3  -4   4 159.604 98.7066   8
  -3  -4  -4 152.553 88.1834  13
  -3  -4  -4 29.6599 72.5725   7
   3  -4   4 127.293 114.343   6
  -3   4   4 141.012 92.3952  17
  -4  -4   4 34334.7 648.557  16
  -4  -4  -4 35917.1 639.935   7
  -4  -4  -4 34715.5 655.124  13
   4  -4   4 32679.5 631.950   6
  -4   4   4 33829.4 637.380  17
  -4  -4   4 33883.3 725.437   8
  -5  -4   4 4534.75 220.662  16
  -5  -4  -4 4798.19 216.513   7
  -5  -4  -4 4534.37 211.227  13
  -5   4  -4 4955.46 184.665   7
   5  -4   4 4567.27 222.179   6
  -5  -4  -4 5036.86 180.213  10
  -5   4   4 4370.93 204.012  17
  -5  -4   4 4383.97 238.236   8
  -6  -4  -4 1707.03 116.631   7
  -6  -4  -4 1867.47 106.744  13
  -6   4  -4 1669.42 89.9409   7
   6  -4   4 1947.82 132.997   6
  -6  -4  -4 1654.05 96.5267  10
  -6   4   4 1812.58 106.591  17
  -6  -4   4 2039.79 138.038   8
  -6  -4   4 1803.20 126.767  16
  -7   4   4 875.250 76.7160  15
  -7   4  -4 838.478 51.5544   7
  -7  -4  -4 752.814 52.5685  10
  -7  -4   4 860.362 70.1655   8
   0  -5  -4-6.31990 64.2474  13
   0   5   4 38.6580 67.7628  17
   1  -5  -4 10950.4 388.677  13
  -1  -5  -4 10674.9 374.773  13
   1  -5   4 10239.3 325.384  12
  -1  -5   4 11738.3 373.829   6
   1  -5   4 10695.8 378.046   6
  -1   5   4 10101.5 358.416  17
  -2  -5   4 58088.8 732.123   6
   2  -5   4 58045.9 851.411   6
  -2   5   4 59680.4 832.689  17
  -3  -5   4 8187.06 310.313  16
  -3  -5  -4 7794.87 299.057  13
  -3   5   4 7672.60 278.866  17
  -4  -5   4 6410.75 247.235  16
  -4  -5  -4 6633.81 256.969  13
   4  -5   4 6847.35 265.579   6
  -4   5   4 6449.29 233.887  17
  -5  -5   4 2519.53 142.229  16
  -5  -5  -4 2663.69 141.835  13
   5  -5   4 2963.64 159.919   6
  -5   5   4 2695.90 131.753  17
  -6   5   4 34733.6 512.439  15
   6  -5   4 34259.8 425.852   6
  -6   5   4 34540.9 362.392  17
   0  -6  -4 442532. 2118.09  13
   0  -6   4 441758. 1973.98   6
   1  -6  -4 38674.6 607.655  13
  -1  -6  -4 36110.5 586.991  13
  -1  -6   4 39399.8 539.452   6
   1  -6   4 37234.9 573.313   6
  -1   6   4 36004.6 540.893  17
  -2  -6  -4 2393.12 153.327  13
  -2   6   4 2062.56 129.228  17
  -3  -6   4 7874.45 261.931  16
  -3  -6  -4 7413.38 250.102  13
   3  -6   4 8046.45 257.847   6
  -3   6   4 7154.79 216.976  17
  -4  -6   4 222786. 1232.68  16
  -4   6   4 225935. 1099.58  17
  -5  -6   4 13936.2 269.525  16
  -5   6   4 15088.8 314.669  15
  -5  -6  -4 14405.4 245.206  13
   5  -6   4 15123.6 269.274   6
  -5   6   4 14520.3 234.509  17
   0  -7  -4 329.066 52.2947  13
   0  -7   4 142.349 38.9246   6
  -1  -7  -4 2160.08 115.440  13
   1  -7   4 2098.87 105.098   6
  -1   7   4 2096.78 100.196  17
  -2  -7   4 53930.5 568.311  16
  -2  -7  -4 53102.9 531.520  13
  -2   7   4 54028.4 483.764  17
  -3  -7   4 231.045 43.6330  16
   3  -7   4 303.433 48.3060   6
   0   0   5-56.3690 145.733   8
  -1   0   5 49075.4 1015.19   8
   1   0   5 47193.6 1043.59   8
  -2   0   5 4427.53 305.274   8
   2   0   5 4060.17 320.896   8
  -3   0   5 24231.9 637.363   8
   3   0   5 22423.5 685.010   8
   4   0   5 3456.60 280.464   8
  -4   0   5 3650.16 238.381   8
   5   0   5 35316.7 749.310   8
  -5   0   5 34989.0 595.407   8
   6   0   5 459.490 94.6195   8
  -6   0   5 420.225 58.1254   8
   0   1   5 39831.4 961.857   8
   0  -1   5 38513.2 919.001   8
  -1   1   5 132186. 1631.20   8
  -1  -1   5 130405. 1612.58   8
   1   1   5 129883. 1708.26   8
   1  -1   5 125621. 1640.44   8
  -2   1   5 478.096 130.019   8
  -2  -1   5 362.898 125.061   8
   2   1   5 391.249 148.024   8
   2  -1   5 261.281 145.177   8
  -3  -1   5 69118.0 1022.64   8
   3  -1   5 67283.2 1118.09   8
   3   1   5 66841.0 1140.37   8
   4  -1   5 36101.4 780.080   8
   4   1   5 35542.8 790.623   8
  -4  -1  -5 37638.6 491.522   7
  -4  -1   5 36581.4 688.273   8
   5  -1   5 167427. 1538.57   8
   5   1   5 142114. 1369.82   8
  -5  -1  -5 134779. 825.935   7
  -5   1   5 151728. 1000.06  17
  -5  -1   5 137391. 965.497  17
  -5   1   5 151732. 1122.58   8
  -5  -1   5 157142. 1239.79   8
   6  -1   5 3487.56 182.666   8
  -6  -1   5 3236.71 136.474   8
   0   2   5-11.2126 106.735   8
   0  -2   5 45.3654 118.372   8
   0   2   5 141.949 85.3973  17
  -1   2   5 68181.9 1054.56   8
  -1  -2   5 66481.5 1080.14   8
   1   2   5 65893.2 1089.33   8
   1  -2   5 65668.9 1090.79   8
   1   2   5 67564.1 945.162  17
  -2   2   5 39653.4 753.161   8
  -2  -2   5 38553.7 777.709   8
   2   2   5 36169.5 793.377   8
   2  -2   5 36232.7 780.716   8
  -2   2   5 38666.8 721.979  17
  -3  -2   5 63862.5 930.646   8
   3   2   5 61803.0 974.920   8
   3  -2   5 59723.9 927.953   8
  -3   2   5 65626.1 859.083  17
  -3   2   5 68330.3 905.018   8
   4  -2   5 2268.51 182.372   8
   4   2   5 2349.34 196.187   8
  -4  -2  -5 1830.77 108.583   7
  -4   2   5 2430.73 153.313  17
  -4  -2   5 2377.83 172.395   8
   5   2   5 14538.6 350.435   8
   5  -2   5 20392.9 450.160   8
  -5  -2  -5 15643.8 261.260   7
  -5  -2  -5 17486.1 277.335  13
  -5   2   5 20010.6 337.581  17
  -5  -2   5 18501.9 384.646   8
   0  -3   5 1117.23 141.427   8
   0  -3  -5 1035.03 117.794  13
   0   3   5 959.874 111.738  17
  -1  -3   5 56111.7 875.859   8
   1  -3   5 56083.0 883.854   8
   1  -3  -5 58607.4 787.849  13
  -1  -3  -5 52846.9 728.142  13
   1   3   5 52135.1 707.118  17
  -1   3   5 48963.4 714.370  17
  -2  -3   5 6277.99 286.341   8
   2  -3   5 5936.69 276.175   8
  -2  -3  -5 5782.83 233.711  13
  -2   3   5 5580.67 242.371  17
  -3  -3   5 8762.24 312.466   8
   3  -3   5 8682.20 306.657   8
  -3  -3  -5 8463.69 260.683  13
  -3   3   5 9520.95 289.506  17
   4  -3   5 4226.72 196.114   8
  -4  -3  -5 4262.00 164.353  13
  -4   3   5 4401.07 175.269  17
  -4  -3   5 4253.57 197.706   8
  -5   3   5 44006.3 415.473  17
  -5  -3   5 40840.4 473.728   8
   0  -4   5-5.80079 48.2685   8
   0  -4  -5 122.579 51.2481  13
   0   4   5 103.936 45.8754  17
  -1  -4   5 139102. 1081.49   8
   1  -4   5 140749. 1049.61   8
  -1   4   5 138879. 990.270  17
  -2  -4  -5 41946.6 527.690  13
  -2   4   5 43520.8 540.883  17
  -2  -4   5 43006.5 579.732   8
  -3  -4  -5 163446. 954.423  13
   3  -4   5 161544. 926.727   6
  -3   4   5 162058. 935.834  17
  -4  -4  -5 2425.04 103.477  13
  -4   4   5 2517.63 103.685  17
  -1  -5  -5 14063.2 256.368  13
  -2  -5  -5 79.0023 28.8939  13
  -2   5   5 91.6522 28.6339  17
   0   0   0    0.00    0.00   0

TITL CU-2015 in Pnma
REM Pnma (#62, found as Pcmn in -cba setting)
CELL 1.54184   9.691893   8.432557   4.718971  90.0000  90.0000  90.0000
ZERR    5.00   0.000290   0.000276   0.000155   0.0000   0.0000   0.0000
LATT  1
SYMM -x+1/2,-y, z+1/2
SYMM -x, y+1/2,-z
SYMM  x+1/2,-y+1/2,-z+1/2
SFAC O Mo
UNIT 10.00 5.00
TREF
HKLF 4
END
;
_shelx_hkl_checksum              60758
loop_
_space_group_symop_operation_xyz
'x, y, z'
'-x+1/2, -y, z+1/2'
'-x, y+1/2, -z'
'x+1/2, -y+1/2, -z+1/2'
'-x, -y, -z'
'x-1/2, y, -z-1/2'
'x, -y-1/2, z'
'-x-1/2, y-1/2, z-1/2'
loop_
_atom_site_label
_atom_site_type_symbol
_atom_site_fract_x
_atom_site_fract_y
_atom_site_fract_z
_atom_site_U_iso_or_equiv
_atom_site_adp_type
_atom_site_occupancy
_atom_site_site_symmetry_order
_atom_site_calc_flag
_atom_site_refinement_flags_posn
_atom_site_refinement_flags_adp
_atom_site_refinement_flags_occupancy
MO1 Mo 0.36523(5) 0.250000 0.02048(10) 0.0068(3) Uani 1 2 d S T P
MO2 Mo 0.13305(4) 0.10081(4) 0.00614(5) 0.0069(3) Uani 1 1 d . . .
O1 O 0.2001(2) 0.5746(2) 0.2771(5) 0.0094(6) Uani 1 1 d . . .
O2 O 0.4567(2) 0.0863(2) 0.2776(5) 0.0099(6) Uani 1 1 d . . .
O3 O 0.0434(3) 0.250000 0.7452(7) 0.0089(7) Uani 1 2 d S T P
O4 O 0.2063(3) 0.250000 0.3012(7) 0.0095(7) Uani 1 2 d S T P
loop_
_atom_site_aniso_label
_atom_site_aniso_U_11
_atom_site_aniso_U_22
_atom_site_aniso_U_33
_atom_site_aniso_U_23
_atom_site_aniso_U_13
_atom_site_aniso_U_12
MO1 0.0105(4) 0.0037(4) 0.0061(4) 0.000 -0.00002(10) 0.000
MO2 0.0107(4) 0.0034(4) 0.0066(4) -0.00002(8) 0.00013(8) 0.00005(9)
O1 0.0126(13) 0.0059(12) 0.0098(13) -0.0003(9) 0.0003(9) 0.0005(8)
O2 0.0132(13) 0.0069(12) 0.0096(12) -0.0007(8) 0.0001(10) -0.0009(8)
O3 0.0135(15) 0.0079(15) 0.0054(14) 0.000 -0.0006(13) 0.000
O4 0.0125(16) 0.0063(15) 0.0097(19) 0.000 0.0008(12) 0.000
loop_
_atom_type_symbol
_atom_type_description
_atom_type_scat_dispersion_real
_atom_type_scat_dispersion_imag
_atom_type_scat_source
Mo Mo -0.0483 2.7339 'International Tables Vol C Tables 4.2.6.8 and 6.1.1.4'
O O 0.0492 0.0322 'International Tables Vol C Tables 4.2.6.8 and 6.1.1.4'
loop_
_exptl_crystal_face_index_h
_exptl_crystal_face_index_k
_exptl_crystal_face_index_l
_exptl_crystal_face_perp_dist
-6 -1 0 0.0278
-1 0 3 0.0402
-5 3 0 0.0209
-1 5 0 0.0344
0 -5 0 0.0267
6 1 0 0.0295
0 1 -3 0.0410
1 -4 2 0.0328
-5 -3 -1 0.0323
-1 4 2 0.0426
0 -1 -3 0.0378
-4 2 -2 0.0341
1 -5 1 0.0246
0 -4 -2 0.0331
loop_
_geom_angle_atom_site_label_1
_geom_angle_atom_site_label_2
_geom_angle_atom_site_label_3
_geom_angle
_geom_angle_site_symmetry_1
_geom_angle_site_symmetry_3
O1 MO1 O1 96.89(13) 8_655 2_564
O1 MO1 O4 97.83(9) 8_655 .
O1 MO1 O4 97.83(9) 2_564 .
O1 MO1 O2 172.22(8) 8_655 7_565
O1 MO1 O2 88.76(9) 2_564 7_565
O4 MO1 O2 86.64(10) . 7_565
O1 MO1 O2 88.76(9) 8_655 .
O1 MO1 O2 172.22(8) 2_564 .
O4 MO1 O2 86.65(10) . .
O2 MO1 O2 85.13(13) 7_565 .
O1 MO1 O3 85.29(9) 8_655 6_656
O1 MO1 O3 85.29(9) 2_564 6_656
O4 MO1 O3 175.27(12) . 6_656
O2 MO1 O3 89.87(9) 7_565 6_656
O2 MO1 O3 89.87(9) . 6_656
O1 MO1 MO2 94.04(7) 8_655 7_565
O1 MO1 MO2 48.73(7) 2_564 7_565
O4 MO1 MO2 49.88(7) . 7_565
O2 MO1 MO2 93.71(6) 7_565 7_565
O2 MO1 MO2 136.44(7) . 7_565
O3 MO1 MO2 133.69(7) 6_656 7_565
O1 MO1 MO2 48.73(7) 8_655 .
O1 MO1 MO2 94.04(7) 2_564 .
O4 MO1 MO2 49.88(7) . .
O2 MO1 MO2 136.44(7) 7_565 .
O2 MO1 MO2 93.71(6) . .
O3 MO1 MO2 133.69(7) 6_656 .
MO2 MO1 MO2 58.39(2) 7_565 .
O1 MO2 O3 95.25(11) 8_655 1_554
O1 MO2 O2 169.59(9) 8_655 6_556
O3 MO2 O2 88.92(11) 1_554 6_556
O1 MO2 O4 99.29(11) 8_655 .
O3 MO2 O4 100.96(9) 1_554 .
O2 MO2 O4 89.25(11) 6_556 .
O1 MO2 O1 90.06(5) 8_655 7_565
O3 MO2 O1 171.47(9) 1_554 7_565
O2 MO2 O1 84.76(9) 6_556 7_565
O4 MO2 O1 84.71(9) . 7_565
O1 MO2 O2 88.50(9) 8_655 2_554
O3 MO2 O2 88.64(9) 1_554 2_554
O2 MO2 O2 82.05(10) 6_556 2_554
O4 MO2 O2 166.95(10) . 2_554
O1 MO2 O2 84.83(9) 7_565 2_554
O1 MO2 MO2 96.49(6) 8_655 7_565
O3 MO2 MO2 50.14(6) 1_554 7_565
O2 MO2 MO2 93.51(6) 6_556 7_565
O4 MO2 MO2 51.17(6) . 7_565
O1 MO2 MO2 135.88(6) 7_565 7_565
O2 MO2 MO2 138.72(6) 2_554 7_565
O1 MO2 MO1 49.36(7) 8_655 .
O3 MO2 MO1 95.16(7) 1_554 .
O2 MO2 MO1 139.84(7) 6_556 .
O4 MO2 MO1 50.73(9) . .
O1 MO2 MO1 93.37(7) 7_565 .
O2 MO2 MO1 137.86(7) 2_554 .
MO2 MO2 MO1 60.805(11) 7_565 .
O1 MO2 MO2 128.11(7) 8_655 5
O3 MO2 MO2 88.37(7) 1_554 5
O2 MO2 MO2 42.31(6) 6_556 5
O4 MO2 MO2 130.81(9) . 5
O1 MO2 MO2 83.10(6) 7_565 5
O2 MO2 MO2 39.74(7) 2_554 5
MO2 MO2 MO2 123.387(13) 7_565 5
MO1 MO2 MO2 175.79(2) . 5
MO2 O1 MO1 81.91(9) 8_666 2_565
MO2 O1 MO2 133.17(11) 8_666 7_565
MO1 O1 MO2 142.83(13) 2_565 7_565
MO2 O2 MO1 129.43(10) 6_656 .
MO2 O2 MO2 97.95(10) 6_656 2
MO1 O2 MO2 129.33(12) . 2
MO2 O3 MO2 79.71(13) 7_566 1_556
MO2 O3 MO1 136.60(8) 7_566 6_556
MO2 O3 MO1 136.60(8) 1_556 6_556
MO2 O4 MO2 77.65(11) . 7_565
MO2 O4 MO1 79.39(11) . .
MO2 O4 MO1 79.39(11) 7_565 .
loop_
_geom_bond_atom_site_label_1
_geom_bond_atom_site_label_2
_geom_bond_distance
_geom_bond_site_symmetry_2
MO1 O1 1.977(2) 8_655
MO1 O1 1.977(2) 2_564
MO1 O4 2.031(3) .
MO1 O2 2.040(2) 7_565
MO1 O2 2.040(2) .
MO1 O3 2.134(3) 6_656
MO1 MO2 2.5790(6) 7_565
MO1 MO2 2.5790(6) .
MO2 O1 1.958(2) 8_655
MO2 O3 1.963(3) 1_554
MO2 O2 1.994(3) 6_556
MO2 O4 2.007(3) .
MO2 O1 2.060(2) 7_565
MO2 O2 2.100(2) 2_554
MO2 MO2 2.5160(7) 7_565
MO2 MO2 3.0895(7) 5
O1 MO2 1.958(2) 8_666
O1 MO1 1.977(2) 2_565
O1 MO2 2.060(2) 7_565
O2 MO2 1.994(3) 6_656
O2 MO2 2.100(2) 2
O3 MO2 1.963(3) 7_566
O3 MO2 1.963(3) 1_556
O3 MO1 2.134(3) 6_556
O4 MO2 2.007(3) 7_565
