#------------------------------------------------------------------------------
#$Date: 2016-02-13 21:28:24 +0200 (Sat, 13 Feb 2016) $
#$Revision: 176429 $
#$URL: svn://www.crystallography.net/cod/cif/1/53/93/1539321.cif $
#------------------------------------------------------------------------------
#
# This file is available in the Crystallography Open Database (COD),
# http://www.crystallography.net/
#
# All data on this site have been placed in the public domain by the
# contributors.
#
data_1539321
loop_
_publ_author_name
'Shakarov, Kh.O.'
'Semyannikov, A.A.'
'Yatsenko, S.P.'
'Kuvandykov, O.K.'
_publ_section_title
;
 Nd-In, Sm-In and Tb-In phase diagrams
;
_journal_name_full               'Russian Metallurgy'
_journal_page_first              206
_journal_page_last               210
_journal_volume                  1981
_journal_year                    1981
_chemical_formula_sum            'In3 Sm'
_chemical_name_systematic        'In3 Sm'
_space_group_IT_number           221
_symmetry_space_group_name_Hall  '-P 4 2 3'
_symmetry_space_group_name_H-M   'P m -3 m'
_cell_angle_alpha                90
_cell_angle_beta                 90
_cell_angle_gamma                90
_cell_formula_units_Z            1
_cell_length_a                   4.62
_cell_length_b                   4.62
_cell_length_c                   4.62
_cell_volume                     98.611
_citation_journal_id_ASTM        RMLYAQ
_cod_data_source_file            Shakarov_RMLYAQ_1981_285.cif
_cod_data_source_block           In3Sm1
_cod_original_cell_volume        98.61112
_cod_original_formula_sum        'In3 Sm1'
_cod_database_code               1539321
loop_
_symmetry_equiv_pos_as_xyz
x,y,z
-y,x,z
-x,-y,z
y,-x,z
x,-y,-z
y,x,-z
-x,y,-z
-y,-x,-z
z,x,y
-x,z,y
-z,-x,y
x,-z,y
z,-x,-y
x,z,-y
-z,x,-y
-x,-z,-y
y,z,x
y,-z,-x
z,y,-x
-y,z,-x
-z,-y,-x
-y,-z,x
z,-y,x
-z,y,x
-x,-y,-z
y,-x,-z
x,y,-z
-y,x,-z
-x,y,z
-y,-x,z
x,-y,z
y,x,z
-z,-x,-y
x,-z,-y
z,x,-y
-x,z,-y
-z,x,y
-x,-z,y
z,-x,y
x,z,y
-y,-z,-x
-y,z,x
-z,-y,x
y,-z,x
z,y,x
y,z,-x
-z,y,-x
z,-y,-x
loop_
_atom_site_label
_atom_site_type_symbol
_atom_site_fract_x
_atom_site_fract_y
_atom_site_fract_z
_atom_site_occupancy
_atom_site_U_iso_or_equiv
Sm1 Sm 0 0 0 1 0.0
In1 In 0 0.5 0.5 1 0.0
