#------------------------------------------------------------------------------
#$Date: 2015-10-14 11:24:24 +0300 (Wed, 14 Oct 2015) $
#$Revision: 168017 $
#$URL: svn://www.crystallography.net/cod/cif/1/53/91/1539182.cif $
#------------------------------------------------------------------------------
#
# This file is available in the Crystallography Open Database (COD),
# http://www.crystallography.net/
#
# All data on this site have been placed in the public domain by the
# contributors.
#
data_1539182
loop_
_publ_author_name
'Savitskii, E.M.'
'Tylkina, M.A.'
'Khamidov, O.'
_publ_section_title
;
 Investigation of the solid solubility of transition metals in rhenium and
 some properties of their alloys
;
_journal_name_full               'Russian Metallurgy'
_journal_page_first              130
_journal_page_last               135
_journal_volume                  1969
_journal_year                    1969
_chemical_formula_sum            'Os0.2 Re1.8'
_chemical_name_systematic        '(Os Re9)0.2'
_space_group_IT_number           194
_symmetry_space_group_name_Hall  '-P 6c 2c'
_symmetry_space_group_name_H-M   'P 63/m m c'
_cell_angle_alpha                90
_cell_angle_beta                 90
_cell_angle_gamma                120
_cell_formula_units_Z            1
_cell_length_a                   2.753
_cell_length_b                   2.753
_cell_length_c                   4.422
_cell_volume                     29.024
_citation_journal_id_ASTM        RMLYAQ
_cod_data_source_file            Savitskii_RMLYAQ_1969_1227.cif
_cod_data_source_block           Os0.2Re1.8
_cod_original_cell_volume        29.0243
_cod_database_code               1539182
loop_
_symmetry_equiv_pos_as_xyz
x,y,z
x-y,x,z+1/2
-y,x-y,z
-x,-y,z+1/2
-x+y,-x,z
y,-x+y,z+1/2
-y,-x,-z+1/2
x-y,-y,-z
x,x-y,-z+1/2
y,x,-z
-x+y,y,-z+1/2
-x,-x+y,-z
-x,-y,-z
-x+y,-x,-z-1/2
y,-x+y,-z
x,y,-z-1/2
x-y,x,-z
-y,x-y,-z-1/2
y,x,z-1/2
-x+y,y,z
-x,-x+y,z-1/2
-y,-x,z
x-y,-y,z-1/2
x,x-y,z
loop_
_atom_site_label
_atom_site_type_symbol
_atom_site_fract_x
_atom_site_fract_y
_atom_site_fract_z
_atom_site_occupancy
_atom_site_U_iso_or_equiv
Re1 Re 0.3333 0.6667 0.25 0.9 0.0
Os1 Os 0.3333 0.6667 0.25 0.1 0.0
