#------------------------------------------------------------------------------
#$Date: 2016-02-13 21:28:24 +0200 (Sat, 13 Feb 2016) $
#$Revision: 176429 $
#$URL: svn://www.crystallography.net/cod/cif/1/53/97/1539754.cif $
#------------------------------------------------------------------------------
#
# This file is available in the Crystallography Open Database (COD),
# http://www.crystallography.net/
#
# All data on this site have been placed in the public domain by the
# contributors.
#
data_1539754
loop_
_publ_author_name
'Elsenhans, O.'
'Hulliger, F.'
'Furrer, A.'
'Fischer, P.'
'Claussen, K.N.'
'Purwins, H.G.'
_publ_section_title
;
 Incommensurate and commensurate magnetic long-range order in metallic RE
 Pd3 compounds of rare earths (RE= Nd, Tb, Dy, Er, Tm, Yb)
;
_journal_name_full               'Zeitschrift fuer Physik, B (1984-)'
_journal_page_first              61
_journal_page_last               75
_journal_volume                  82
_journal_year                    1991
_chemical_formula_sum            'Pd3 Tm'
_chemical_name_systematic        'Pd3 Tm'
_space_group_IT_number           221
_symmetry_space_group_name_Hall  '-P 4 2 3'
_symmetry_space_group_name_H-M   'P m -3 m'
_cell_angle_alpha                90
_cell_angle_beta                 90
_cell_angle_gamma                90
_cell_formula_units_Z            1
_cell_length_a                   4.038
_cell_length_b                   4.038
_cell_length_c                   4.038
_cell_volume                     65.841
_citation_journal_id_ASTM        ZPCMDN
_cod_data_source_file            Elsenhans_ZPCMDN_1991_645.cif
_cod_data_source_block           Pd3Tm1
_cod_original_cell_volume        65.84138
_cod_original_formula_sum        'Pd3 Tm1'
_cod_database_code               1539754
loop_
_symmetry_equiv_pos_as_xyz
x,y,z
-y,x,z
-x,-y,z
y,-x,z
x,-y,-z
y,x,-z
-x,y,-z
-y,-x,-z
z,x,y
-x,z,y
-z,-x,y
x,-z,y
z,-x,-y
x,z,-y
-z,x,-y
-x,-z,-y
y,z,x
y,-z,-x
z,y,-x
-y,z,-x
-z,-y,-x
-y,-z,x
z,-y,x
-z,y,x
-x,-y,-z
y,-x,-z
x,y,-z
-y,x,-z
-x,y,z
-y,-x,z
x,-y,z
y,x,z
-z,-x,-y
x,-z,-y
z,x,-y
-x,z,-y
-z,x,y
-x,-z,y
z,-x,y
x,z,y
-y,-z,-x
-y,z,x
-z,-y,x
y,-z,x
z,y,x
y,z,-x
-z,y,-x
z,-y,-x
loop_
_atom_site_label
_atom_site_type_symbol
_atom_site_fract_x
_atom_site_fract_y
_atom_site_fract_z
_atom_site_occupancy
_atom_site_U_iso_or_equiv
Pd1 Pd 0 0.5 0.5 1 0.0
Tm1 Tm 0 0 0 1 0.0
