#------------------------------------------------------------------------------
#$Date: 2016-02-13 21:28:24 +0200 (Sat, 13 Feb 2016) $
#$Revision: 176429 $
#$URL: svn://www.crystallography.net/cod/cif/1/53/96/1539619.cif $
#------------------------------------------------------------------------------
#
# This file is available in the Crystallography Open Database (COD),
# http://www.crystallography.net/
#
# All data on this site have been placed in the public domain by the
# contributors.
#
data_1539619
loop_
_publ_author_name
'Badaeva, T.A.'
'Dashevskaya, I.I.'
_publ_section_title
;
 Refractory compounds containing thorium and uranium. Resistance of
 compounds of thorium and uranium with beryllium, aluminium,and silicon,
 to oxidation in the air at elevated temperatures
;
_journal_name_full
'Fiz.-Khim. Splavov Tugoplavkikh Soedin. Toriem Uranom'
_journal_page_first              123
_journal_page_last               129
_journal_volume                  1972
_journal_year                    1972
_chemical_formula_sum            'Si3 U'
_chemical_name_systematic        'U Si3'
_space_group_IT_number           221
_symmetry_space_group_name_Hall  '-P 4 2 3'
_symmetry_space_group_name_H-M   'P m -3 m'
_cell_angle_alpha                90
_cell_angle_beta                 90
_cell_angle_gamma                90
_cell_formula_units_Z            1
_cell_length_a                   4.036
_cell_length_b                   4.036
_cell_length_c                   4.036
_cell_volume                     65.744
_citation_journal_id_ASTM        20ZPAY
_cod_data_source_file            Badaeva_20ZPAY_1972_22.cif
_cod_data_source_block           Si3U1
_cod_original_cell_volume        65.74359
_cod_original_formula_sum        'Si3 U1'
_cod_database_code               1539619
loop_
_symmetry_equiv_pos_as_xyz
x,y,z
-y,x,z
-x,-y,z
y,-x,z
x,-y,-z
y,x,-z
-x,y,-z
-y,-x,-z
z,x,y
-x,z,y
-z,-x,y
x,-z,y
z,-x,-y
x,z,-y
-z,x,-y
-x,-z,-y
y,z,x
y,-z,-x
z,y,-x
-y,z,-x
-z,-y,-x
-y,-z,x
z,-y,x
-z,y,x
-x,-y,-z
y,-x,-z
x,y,-z
-y,x,-z
-x,y,z
-y,-x,z
x,-y,z
y,x,z
-z,-x,-y
x,-z,-y
z,x,-y
-x,z,-y
-z,x,y
-x,-z,y
z,-x,y
x,z,y
-y,-z,-x
-y,z,x
-z,-y,x
y,-z,x
z,y,x
y,z,-x
-z,y,-x
z,-y,-x
loop_
_atom_site_label
_atom_site_type_symbol
_atom_site_fract_x
_atom_site_fract_y
_atom_site_fract_z
_atom_site_occupancy
_atom_site_U_iso_or_equiv
U1 U 0 0 0 1 0.0
Si1 Si 0 0.5 0.5 1 0.0
