#------------------------------------------------------------------------------
#$Date: 2016-02-13 21:28:24 +0200 (Sat, 13 Feb 2016) $
#$Revision: 176429 $
#$URL: svn://www.crystallography.net/cod/cif/1/53/94/1539432.cif $
#------------------------------------------------------------------------------
#
# This file is available in the Crystallography Open Database (COD),
# http://www.crystallography.net/
#
# All data on this site have been placed in the public domain by the
# contributors.
#
data_1539432
loop_
_publ_author_name
'Yuen, T.'
'Crow, J.E.'
'Perez, I.'
'Schlottmann, P.'
'Myer, G.H.'
_publ_section_title
;
 Magnetic susceptibility and specific heat study on the nonmagnetic to
 magnetic transiton in U Rh3 Bx (0 = x = 1) system
;
_journal_name_full               'Journal de Physique (Paris), Colloque.'
_journal_page_first              489
_journal_page_last               490
_journal_volume                  49
_journal_year                    1988
_chemical_formula_sum            'Rh3 U'
_chemical_name_systematic        'Rh3 U'
_space_group_IT_number           221
_symmetry_space_group_name_Hall  '-P 4 2 3'
_symmetry_space_group_name_H-M   'P m -3 m'
_cell_angle_alpha                90
_cell_angle_beta                 90
_cell_angle_gamma                90
_cell_formula_units_Z            1
_cell_length_a                   3.98
_cell_length_b                   3.98
_cell_length_c                   3.98
_cell_volume                     63.045
_citation_journal_id_ASTM        JPQCAK
_cod_data_source_file            Yuen_JPQCAK_1988_1667.cif
_cod_data_source_block           Rh3U1
_cod_original_cell_volume        63.04479
_cod_original_formula_sum        'Rh3 U1'
_cod_database_code               1539432
loop_
_symmetry_equiv_pos_as_xyz
x,y,z
-y,x,z
-x,-y,z
y,-x,z
x,-y,-z
y,x,-z
-x,y,-z
-y,-x,-z
z,x,y
-x,z,y
-z,-x,y
x,-z,y
z,-x,-y
x,z,-y
-z,x,-y
-x,-z,-y
y,z,x
y,-z,-x
z,y,-x
-y,z,-x
-z,-y,-x
-y,-z,x
z,-y,x
-z,y,x
-x,-y,-z
y,-x,-z
x,y,-z
-y,x,-z
-x,y,z
-y,-x,z
x,-y,z
y,x,z
-z,-x,-y
x,-z,-y
z,x,-y
-x,z,-y
-z,x,y
-x,-z,y
z,-x,y
x,z,y
-y,-z,-x
-y,z,x
-z,-y,x
y,-z,x
z,y,x
y,z,-x
-z,y,-x
z,-y,-x
loop_
_atom_site_label
_atom_site_type_symbol
_atom_site_fract_x
_atom_site_fract_y
_atom_site_fract_z
_atom_site_occupancy
_atom_site_U_iso_or_equiv
U1 U 0 0 0 1 0.0
Rh1 Rh 0 0.5 0.5 1 0.0
