#------------------------------------------------------------------------------
#$Date: 2015-10-13 21:44:16 +0300 (Tue, 13 Oct 2015) $
#$Revision: 167741 $
#$URL: svn://www.crystallography.net/cod/cif/1/53/90/1539015.cif $
#------------------------------------------------------------------------------
#
# This file is available in the Crystallography Open Database (COD),
# http://www.crystallography.net/
#
# All data on this site have been placed in the public domain by the
# contributors.
#
data_1539015
loop_
_publ_author_name
'Raub, E.'
'Fritzsche, W.'
_publ_section_title
;
 Die Nb-Ru Legierungen
;
_journal_name_full               'Zeitschrift fuer Metallkunde'
_journal_page_first              317
_journal_page_last               319
_journal_volume                  54
_journal_year                    1963
_chemical_formula_sum            'Nb0.34 Ru1.66'
_chemical_name_systematic        'Nb0.34 Ru1.66'
_space_group_IT_number           194
_symmetry_space_group_name_Hall  '-P 6c 2c'
_symmetry_space_group_name_H-M   'P 63/m m c'
_cell_angle_alpha                90
_cell_angle_beta                 90
_cell_angle_gamma                120
_cell_formula_units_Z            1
_cell_length_a                   2.756
_cell_length_b                   2.756
_cell_length_c                   4.431
_cell_volume                     29.147
_citation_journal_id_ASTM        ZEMTAE
_cod_data_source_file            Raub_ZEMTAE_1963_843.cif
_cod_data_source_block           Nb0.34Ru1.66
_cod_original_cell_volume        29.1468
_cod_database_code               1539015
loop_
_symmetry_equiv_pos_as_xyz
x,y,z
x-y,x,z+1/2
-y,x-y,z
-x,-y,z+1/2
-x+y,-x,z
y,-x+y,z+1/2
-y,-x,-z+1/2
x-y,-y,-z
x,x-y,-z+1/2
y,x,-z
-x+y,y,-z+1/2
-x,-x+y,-z
-x,-y,-z
-x+y,-x,-z-1/2
y,-x+y,-z
x,y,-z-1/2
x-y,x,-z
-y,x-y,-z-1/2
y,x,z-1/2
-x+y,y,z
-x,-x+y,z-1/2
-y,-x,z
x-y,-y,z-1/2
x,x-y,z
loop_
_atom_site_label
_atom_site_type_symbol
_atom_site_fract_x
_atom_site_fract_y
_atom_site_fract_z
_atom_site_occupancy
_atom_site_U_iso_or_equiv
Ru1 Ru 0.3333 0.6667 0.25 0.83 0.0
Nb1 Nb 0.3333 0.6667 0.25 0.17 0.0
