#------------------------------------------------------------------------------
#$Date: 2016-02-13 21:28:24 +0200 (Sat, 13 Feb 2016) $
#$Revision: 176429 $
#$URL: svn://www.crystallography.net/cod/cif/1/53/92/1539261.cif $
#------------------------------------------------------------------------------
#
# This file is available in the Crystallography Open Database (COD),
# http://www.crystallography.net/
#
# All data on this site have been placed in the public domain by the
# contributors.
#
data_1539261
loop_
_publ_author_name
'Wallbaum, H.J.'
_publ_section_title
;
 Ueber weitere Zirkoniumverbindungen mit Uebergangselementen
;
_journal_name_full               Naturwissenschaften
_journal_page_first              149
_journal_page_last               149
_journal_volume                  30
_journal_year                    1942
_chemical_formula_sum            'Ru2 Zr'
_chemical_name_systematic        'Ru2 Zr'
_space_group_IT_number           194
_symmetry_space_group_name_Hall  '-P 6c 2c'
_symmetry_space_group_name_H-M   'P 63/m m c'
_cell_angle_alpha                90
_cell_angle_beta                 90
_cell_angle_gamma                120
_cell_formula_units_Z            4
_cell_length_a                   5.141
_cell_length_b                   5.141
_cell_length_c                   8.509
_cell_volume                     194.762
_citation_journal_id_ASTM        NATWAY
_cod_data_source_file            Wallbaum_NATWAY_1942_1720.cif
_cod_data_source_block           Ru2Zr1
_cod_original_formula_sum        'Ru2 Zr1'
_cod_database_code               1539261
loop_
_symmetry_equiv_pos_as_xyz
x,y,z
x-y,x,z+1/2
-y,x-y,z
-x,-y,z+1/2
-x+y,-x,z
y,-x+y,z+1/2
-y,-x,-z+1/2
x-y,-y,-z
x,x-y,-z+1/2
y,x,-z
-x+y,y,-z+1/2
-x,-x+y,-z
-x,-y,-z
-x+y,-x,-z-1/2
y,-x+y,-z
x,y,-z-1/2
x-y,x,-z
-y,x-y,-z-1/2
y,x,z-1/2
-x+y,y,z
-x,-x+y,z-1/2
-y,-x,z
x-y,-y,z-1/2
x,x-y,z
loop_
_atom_site_label
_atom_site_type_symbol
_atom_site_fract_x
_atom_site_fract_y
_atom_site_fract_z
_atom_site_occupancy
_atom_site_U_iso_or_equiv
Zr1 Zr 0.3333 0.6667 0.058 1 0.0
Ru2 Ru 0.833 0.666 0.25 1 0.0
Ru1 Ru 0 0 0 1 0.0
