#------------------------------------------------------------------------------
#$Date: 2016-02-13 21:28:24 +0200 (Sat, 13 Feb 2016) $
#$Revision: 176429 $
#$URL: svn://www.crystallography.net/cod/cif/1/53/97/1539781.cif $
#------------------------------------------------------------------------------
#
# This file is available in the Crystallography Open Database (COD),
# http://www.crystallography.net/
#
# All data on this site have been placed in the public domain by the
# contributors.
#
data_1539781
loop_
_publ_author_name
'Chiotti, P.'
'Gill, K.J.'
_publ_section_title
;
 Phase diagram and thermodynamic properties of the thorium-zinc system
;
_journal_name_full
'Transactions of the Metallurgical Society of Aime'
_journal_page_first              573
_journal_page_last               580
_journal_volume                  221
_journal_year                    1961
_chemical_formula_sum            'Th Zn4'
_chemical_name_systematic        'Th Zn4'
_space_group_IT_number           139
_symmetry_space_group_name_Hall  '-I 4 2'
_symmetry_space_group_name_H-M   'I 4/m m m'
_cell_angle_alpha                90
_cell_angle_beta                 90
_cell_angle_gamma                90
_cell_formula_units_Z            2
_cell_length_a                   4.273
_cell_length_b                   4.273
_cell_length_c                   10.359
_cell_volume                     189.140
_citation_journal_id_ASTM        TMSAAB
_cod_data_source_file            Chiotti_TMSAAB_1961_164.cif
_cod_data_source_block           Th1Zn4
_cod_original_cell_volume        189.1401
_cod_original_formula_sum        'Th1 Zn4'
_cod_database_code               1539781
loop_
_symmetry_equiv_pos_as_xyz
x,y,z
-y,x,z
-x,-y,z
y,-x,z
x,-y,-z
y,x,-z
-x,y,-z
-y,-x,-z
-x,-y,-z
y,-x,-z
x,y,-z
-y,x,-z
-x,y,z
-y,-x,z
x,-y,z
y,x,z
x+1/2,y+1/2,z+1/2
-y+1/2,x+1/2,z+1/2
-x+1/2,-y+1/2,z+1/2
y+1/2,-x+1/2,z+1/2
x+1/2,-y+1/2,-z+1/2
y+1/2,x+1/2,-z+1/2
-x+1/2,y+1/2,-z+1/2
-y+1/2,-x+1/2,-z+1/2
-x+1/2,-y+1/2,-z+1/2
y+1/2,-x+1/2,-z+1/2
x+1/2,y+1/2,-z+1/2
-y+1/2,x+1/2,-z+1/2
-x+1/2,y+1/2,z+1/2
-y+1/2,-x+1/2,z+1/2
x+1/2,-y+1/2,z+1/2
y+1/2,x+1/2,z+1/2
loop_
_atom_site_label
_atom_site_type_symbol
_atom_site_fract_x
_atom_site_fract_y
_atom_site_fract_z
_atom_site_occupancy
_atom_site_U_iso_or_equiv
Zn1 Zn 0 0.5 0.25 1 0.0
Zn2 Zn 0 0 0.38 1 0.0
Th1 Th 0 0 0 1 0.0
