#------------------------------------------------------------------------------
#$Date: 2015-10-14 11:46:17 +0300 (Wed, 14 Oct 2015) $
#$Revision: 168102 $
#$URL: svn://www.crystallography.net/cod/cif/1/53/92/1539260.cif $
#------------------------------------------------------------------------------
#
# This file is available in the Crystallography Open Database (COD),
# http://www.crystallography.net/
#
# All data on this site have been placed in the public domain by the
# contributors.
#
data_1539260
loop_
_publ_author_name
'Trzebiatowski, W.'
'Niemiec, J.'
_publ_section_title
;
 Struktura Re24 Ti5
;
_journal_name_full               'Roczniki Chemii'
_journal_page_first              277
_journal_page_last               283
_journal_volume                  29
_journal_year                    1955
_chemical_formula_sum            'Re24 Ti5'
_chemical_name_systematic        'Re24 Ti5'
_space_group_IT_number           217
_symmetry_space_group_name_Hall  'I -4 2 3'
_symmetry_space_group_name_H-M   'I -4 3 m'
_cell_angle_alpha                90
_cell_angle_beta                 90
_cell_angle_gamma                90
_cell_formula_units_Z            2
_cell_length_a                   9.606
_cell_length_b                   9.606
_cell_length_c                   9.606
_cell_volume                     886.396
_citation_journal_id_ASTM        ROCHAC
_cod_data_source_file            Trzebiatowski_ROCHAC_1955_1604.cif
_cod_data_source_block           Re24Ti5
_cod_original_cell_volume        886.3959
_cod_database_code               1539260
loop_
_symmetry_equiv_pos_as_xyz
x,y,z
y,-x,-z
-x,-y,z
-y,x,-z
x,-y,-z
-y,-x,z
-x,y,-z
y,x,z
z,x,y
x,-z,-y
-z,-x,y
-x,z,-y
z,-x,-y
-x,-z,y
-z,x,-y
x,z,y
y,z,x
y,-z,-x
-z,-y,x
-y,z,-x
z,y,x
-y,-z,x
-z,y,-x
z,-y,-x
x+1/2,y+1/2,z+1/2
y+1/2,-x+1/2,-z+1/2
-x+1/2,-y+1/2,z+1/2
-y+1/2,x+1/2,-z+1/2
x+1/2,-y+1/2,-z+1/2
-y+1/2,-x+1/2,z+1/2
-x+1/2,y+1/2,-z+1/2
y+1/2,x+1/2,z+1/2
z+1/2,x+1/2,y+1/2
x+1/2,-z+1/2,-y+1/2
-z+1/2,-x+1/2,y+1/2
-x+1/2,z+1/2,-y+1/2
z+1/2,-x+1/2,-y+1/2
-x+1/2,-z+1/2,y+1/2
-z+1/2,x+1/2,-y+1/2
x+1/2,z+1/2,y+1/2
y+1/2,z+1/2,x+1/2
y+1/2,-z+1/2,-x+1/2
-z+1/2,-y+1/2,x+1/2
-y+1/2,z+1/2,-x+1/2
z+1/2,y+1/2,x+1/2
-y+1/2,-z+1/2,x+1/2
-z+1/2,y+1/2,-x+1/2
z+1/2,-y+1/2,-x+1/2
loop_
_atom_site_label
_atom_site_type_symbol
_atom_site_fract_x
_atom_site_fract_y
_atom_site_fract_z
_atom_site_occupancy
_atom_site_U_iso_or_equiv
Re2 Re 0.089 0.089 0.278 1 0.0
Ti2 Ti 0.317 0.317 0.317 1 0.0
Ti1 Ti 0 0 0 1 0.0
Re1 Re 0.356 0.356 0.042 1 0.0
