#------------------------------------------------------------------------------
#$Date: 2015-10-14 11:18:13 +0300 (Wed, 14 Oct 2015) $
#$Revision: 167999 $
#$URL: svn://www.crystallography.net/cod/cif/1/53/91/1539172.cif $
#------------------------------------------------------------------------------
#
# This file is available in the Crystallography Open Database (COD),
# http://www.crystallography.net/
#
# All data on this site have been placed in the public domain by the
# contributors.
#
data_1539172
loop_
_publ_author_name
'Satya Murthy, N.S.'
'Murthy, M.R.L.N.'
'Srinivasan, B.S.'
'Begum, R.J.'
_publ_section_title
;
 Atomic and magnetic structure of Mn1.74 Sn
;
_journal_name_full               'Physics Letters'
_journal_page_first              225
_journal_page_last               227
_journal_volume                  15
_journal_year                    1965
_chemical_formula_sum            'Mn1.71 Sn0.98'
_chemical_name_systematic        'Mn1.71 Sn0.98'
_space_group_IT_number           194
_symmetry_space_group_name_Hall  '-P 6c 2c'
_symmetry_space_group_name_H-M   'P 63/m m c'
_cell_angle_alpha                90
_cell_angle_beta                 90
_cell_angle_gamma                120
_cell_formula_units_Z            2
_cell_length_a                   4.37
_cell_length_b                   4.37
_cell_length_c                   5.475
_cell_volume                     90.548
_citation_journal_id_ASTM        PHLTAM
_cod_data_source_file            SatyaMurthy_PHLTAM_1965_661.cif
_cod_data_source_block           Mn1.71Sn0.98
_cod_original_cell_volume        90.54774
_cod_database_code               1539172
loop_
_symmetry_equiv_pos_as_xyz
x,y,z
x-y,x,z+1/2
-y,x-y,z
-x,-y,z+1/2
-x+y,-x,z
y,-x+y,z+1/2
-y,-x,-z+1/2
x-y,-y,-z
x,x-y,-z+1/2
y,x,-z
-x+y,y,-z+1/2
-x,-x+y,-z
-x,-y,-z
-x+y,-x,-z-1/2
y,-x+y,-z
x,y,-z-1/2
x-y,x,-z
-y,x-y,-z-1/2
y,x,z-1/2
-x+y,y,z
-x,-x+y,z-1/2
-y,-x,z
x-y,-y,z-1/2
x,x-y,z
loop_
_atom_site_label
_atom_site_type_symbol
_atom_site_fract_x
_atom_site_fract_y
_atom_site_fract_z
_atom_site_occupancy
_atom_site_U_iso_or_equiv
Mn1 Mn 0 0 0 1 0.0
Mn2 Mn 0.3333 0.6667 0.75 0.71 0.0
Sn1 Sn 0.3333 0.6667 0.25 0.98 0.0
