#------------------------------------------------------------------------------
#$Date: 2016-02-13 21:28:24 +0200 (Sat, 13 Feb 2016) $
#$Revision: 176429 $
#$URL: svn://www.crystallography.net/cod/cif/1/53/90/1539010.cif $
#------------------------------------------------------------------------------
#
# This file is available in the Crystallography Open Database (COD),
# http://www.crystallography.net/
#
# All data on this site have been placed in the public domain by the
# contributors.
#
data_1539010
loop_
_publ_author_name
'Phal Ram, R.'
'Bhan, S.'
_publ_section_title
;
 On the constitution of platinum-silicon alloys
;
_journal_name_full               'Zeitschrift fuer Metallkunde'
_journal_page_first              524
_journal_page_last               529
_journal_volume                  69
_journal_year                    1978
_chemical_formula_sum            'Pt2 Si'
_chemical_name_systematic        'Pt2 Si'
_space_group_IT_number           139
_symmetry_space_group_name_Hall  '-I 4 2'
_symmetry_space_group_name_H-M   'I 4/m m m'
_cell_angle_alpha                90
_cell_angle_beta                 90
_cell_angle_gamma                90
_cell_formula_units_Z            2
_cell_length_a                   3.948
_cell_length_b                   3.948
_cell_length_c                   5.963
_cell_volume                     92.944
_citation_journal_id_ASTM        ZEMTAE
_cod_data_source_file            PhalRam_ZEMTAE_1978_1527.cif
_cod_data_source_block           Pt2Si1
_cod_original_cell_volume        92.94351
_cod_original_formula_sum        'Pt2 Si1'
_cod_database_code               1539010
loop_
_symmetry_equiv_pos_as_xyz
x,y,z
-y,x,z
-x,-y,z
y,-x,z
x,-y,-z
y,x,-z
-x,y,-z
-y,-x,-z
-x,-y,-z
y,-x,-z
x,y,-z
-y,x,-z
-x,y,z
-y,-x,z
x,-y,z
y,x,z
x+1/2,y+1/2,z+1/2
-y+1/2,x+1/2,z+1/2
-x+1/2,-y+1/2,z+1/2
y+1/2,-x+1/2,z+1/2
x+1/2,-y+1/2,-z+1/2
y+1/2,x+1/2,-z+1/2
-x+1/2,y+1/2,-z+1/2
-y+1/2,-x+1/2,-z+1/2
-x+1/2,-y+1/2,-z+1/2
y+1/2,-x+1/2,-z+1/2
x+1/2,y+1/2,-z+1/2
-y+1/2,x+1/2,-z+1/2
-x+1/2,y+1/2,z+1/2
-y+1/2,-x+1/2,z+1/2
x+1/2,-y+1/2,z+1/2
y+1/2,x+1/2,z+1/2
loop_
_atom_site_label
_atom_site_type_symbol
_atom_site_fract_x
_atom_site_fract_y
_atom_site_fract_z
_atom_site_occupancy
_atom_site_U_iso_or_equiv
Pt1 Pt+2 0 0.5 0.25 1 0.0
Si1 Si-4 0 0 0 1 0.0
