#------------------------------------------------------------------------------
#$Date: 2016-02-13 21:28:24 +0200 (Sat, 13 Feb 2016) $
#$Revision: 176429 $
#$URL: svn://www.crystallography.net/cod/cif/1/53/99/1539904.cif $
#------------------------------------------------------------------------------
#
# This file is available in the Crystallography Open Database (COD),
# http://www.crystallography.net/
#
# All data on this site have been placed in the public domain by the
# contributors.
#
data_1539904
loop_
_publ_author_name
'Brown, P.J.'
'Deportes, J.'
'Ouladdiaf, B.'
_publ_section_title
;
 Magnetic structure of the Laves phase compound Ti Fe2
;
_journal_name_full               'Journal of Physics: Condensed Matter'
_journal_page_first              10015
_journal_page_last               10024
_journal_volume                  4
_journal_year                    1992
_chemical_formula_sum            'Fe2 Ti'
_chemical_name_systematic        'Fe2 Ti'
_space_group_IT_number           194
_symmetry_space_group_name_Hall  '-P 6c 2c'
_symmetry_space_group_name_H-M   'P 63/m m c'
_cell_angle_alpha                90
_cell_angle_beta                 90
_cell_angle_gamma                120
_cell_formula_units_Z            4
_cell_length_a                   4.796
_cell_length_b                   4.796
_cell_length_c                   7.833
_cell_volume                     156.033
_citation_journal_id_ASTM        JCOMEL
_cod_data_source_file            Brown_JCOMEL_1992_783.cif
_cod_data_source_block           Fe2Ti1
_cod_original_cell_volume        156.0332
_cod_original_formula_sum        'Fe2 Ti1'
_cod_database_code               1539904
loop_
_symmetry_equiv_pos_as_xyz
x,y,z
x-y,x,z+1/2
-y,x-y,z
-x,-y,z+1/2
-x+y,-x,z
y,-x+y,z+1/2
-y,-x,-z+1/2
x-y,-y,-z
x,x-y,-z+1/2
y,x,-z
-x+y,y,-z+1/2
-x,-x+y,-z
-x,-y,-z
-x+y,-x,-z-1/2
y,-x+y,-z
x,y,-z-1/2
x-y,x,-z
-y,x-y,-z-1/2
y,x,z-1/2
-x+y,y,z
-x,-x+y,z-1/2
-y,-x,z
x-y,-y,z-1/2
x,x-y,z
loop_
_atom_site_label
_atom_site_type_symbol
_atom_site_fract_x
_atom_site_fract_y
_atom_site_fract_z
_atom_site_occupancy
_atom_site_U_iso_or_equiv
Fe1 Fe 0 0 0 1 0.0
Ti1 Ti 0.3333 0.6667 0.0647 1 0.0
Fe2 Fe 0.8295 0.659 0.25 1 0.0
