#------------------------------------------------------------------------------
#$Date: 2016-02-13 21:28:24 +0200 (Sat, 13 Feb 2016) $
#$Revision: 176429 $
#$URL: svn://www.crystallography.net/cod/cif/1/53/93/1539319.cif $
#------------------------------------------------------------------------------
#
# This file is available in the Crystallography Open Database (COD),
# http://www.crystallography.net/
#
# All data on this site have been placed in the public domain by the
# contributors.
#
data_1539319
loop_
_publ_author_name
'Seshu Bai, V.'
'Rama Rao, K.V.S.'
_publ_section_title
;
 Ferromagnetic resonance investigations in Mn Sb1-x In X Films
;
_journal_name_full
'Physica Status Solidi, Sectio A: Applied Research'
_journal_page_first              K303
_journal_page_last               K305
_journal_volume                  73
_journal_year                    1982
_chemical_formula_sum            'Mn Sb'
_chemical_name_systematic        'Mn Sb'
_space_group_IT_number           194
_symmetry_space_group_name_Hall  '-P 6c 2c'
_symmetry_space_group_name_H-M   'P 63/m m c'
_cell_angle_alpha                90
_cell_angle_beta                 90
_cell_angle_gamma                120
_cell_formula_units_Z            2
_cell_length_a                   4.14
_cell_length_b                   4.14
_cell_length_c                   5.79
_cell_volume                     85.943
_citation_journal_id_ASTM        PSSABA
_cod_data_source_file            SeshuBai_PSSABA_1982_649.cif
_cod_data_source_block           Mn1Sb1
_cod_original_cell_volume        85.94287
_cod_original_formula_sum        'Mn1 Sb1'
_cod_database_code               1539319
loop_
_symmetry_equiv_pos_as_xyz
x,y,z
x-y,x,z+1/2
-y,x-y,z
-x,-y,z+1/2
-x+y,-x,z
y,-x+y,z+1/2
-y,-x,-z+1/2
x-y,-y,-z
x,x-y,-z+1/2
y,x,-z
-x+y,y,-z+1/2
-x,-x+y,-z
-x,-y,-z
-x+y,-x,-z-1/2
y,-x+y,-z
x,y,-z-1/2
x-y,x,-z
-y,x-y,-z-1/2
y,x,z-1/2
-x+y,y,z
-x,-x+y,z-1/2
-y,-x,z
x-y,-y,z-1/2
x,x-y,z
loop_
_atom_site_label
_atom_site_type_symbol
_atom_site_fract_x
_atom_site_fract_y
_atom_site_fract_z
_atom_site_occupancy
_atom_site_U_iso_or_equiv
Sb1 Sb 0.3333 0.6667 0.25 1 0.0
Mn1 Mn 0 0 0 1 0.0
