#------------------------------------------------------------------------------
#$Date: 2015-10-14 01:34:58 +0300 (Wed, 14 Oct 2015) $
#$Revision: 167863 $
#$URL: svn://www.crystallography.net/cod/cif/1/53/91/1539109.cif $
#------------------------------------------------------------------------------
#
# This file is available in the Crystallography Open Database (COD),
# http://www.crystallography.net/
#
# All data on this site have been placed in the public domain by the
# contributors.
#
data_1539109
loop_
_publ_author_name
'Simon, A.'
'von Schnering, H.G.'
_publ_section_title
;
 Nb3 Br8-beta und Nb3 I8-beta Darstellung, Eigenschaften und Struktur
;
_journal_name_full               'Journal of the Less-Common Metals'
_journal_page_first              31
_journal_page_last               46
_journal_volume                  11
_journal_year                    1966
_chemical_formula_sum            'I8 Nb3'
_chemical_name_systematic        'Nb3 I8'
_space_group_IT_number           166
_symmetry_space_group_name_Hall  '-R 3 2"'
_symmetry_space_group_name_H-M   'R -3 m :H'
_cell_angle_alpha                90
_cell_angle_beta                 90
_cell_angle_gamma                120
_cell_formula_units_Z            6
_cell_length_a                   7.6
_cell_length_b                   7.6
_cell_length_c                   41.715
_cell_volume                     2086.652
_citation_journal_id_ASTM        JCOMAH
_cod_data_source_file            Simon_JCOMAH_1966_962.cif
_cod_data_source_block           I8Nb3
_cod_database_code               1539109
loop_
_symmetry_equiv_pos_as_xyz
x,y,z
-y,x-y,z
-x+y,-x,z
y,x,-z
-x,-x+y,-z
x-y,-y,-z
-x,-y,-z
y,-x+y,-z
x-y,x,-z
-y,-x,z
x,x-y,z
-x+y,y,z
x+2/3,y+1/3,z+1/3
-y+2/3,x-y+1/3,z+1/3
-x+y+2/3,-x+1/3,z+1/3
y+2/3,x+1/3,-z+1/3
-x+2/3,-x+y+1/3,-z+1/3
x-y+2/3,-y+1/3,-z+1/3
-x+2/3,-y+1/3,-z+1/3
y+2/3,-x+y+1/3,-z+1/3
x-y+2/3,x+1/3,-z+1/3
-y+2/3,-x+1/3,z+1/3
x+2/3,x-y+1/3,z+1/3
-x+y+2/3,y+1/3,z+1/3
x+1/3,y+2/3,z+2/3
-y+1/3,x-y+2/3,z+2/3
-x+y+1/3,-x+2/3,z+2/3
y+1/3,x+2/3,-z+2/3
-x+1/3,-x+y+2/3,-z+2/3
x-y+1/3,-y+2/3,-z+2/3
-x+1/3,-y+2/3,-z+2/3
y+1/3,-x+y+2/3,-z+2/3
x-y+1/3,x+2/3,-z+2/3
-y+1/3,-x+2/3,z+2/3
x+1/3,x-y+2/3,z+2/3
-x+y+1/3,y+2/3,z+2/3
loop_
_atom_site_label
_atom_site_type_symbol
_atom_site_fract_x
_atom_site_fract_y
_atom_site_fract_z
_atom_site_occupancy
_atom_site_U_iso_or_equiv
I3 I 0 0 0.2162 1 0.0
I4 I 0 0 0.3646 1 0.0
Nb1 Nb 0.465 -0.465 0.083 1 0.0
I2 I 0.837 -0.837 0.0456 1 0.0
I1 I 0.165 -0.165 0.1276 1 0.0
