#------------------------------------------------------------------------------
#$Date: 2016-02-13 21:28:24 +0200 (Sat, 13 Feb 2016) $
#$Revision: 176429 $
#$URL: svn://www.crystallography.net/cod/cif/1/53/93/1539310.cif $
#------------------------------------------------------------------------------
#
# This file is available in the Crystallography Open Database (COD),
# http://www.crystallography.net/
#
# All data on this site have been placed in the public domain by the
# contributors.
#
data_1539310
loop_
_publ_author_name
'Selte, K.'
'Kjekshus, A.'
_publ_section_title
;
 On the structural properties of the Nb1+x Se2 phase
;
_journal_name_full
'Acta Chemica Scandinavica (1-27,1973-42,1988)'
_journal_page_first              697
_journal_page_last               706
_journal_volume                  18
_journal_year                    1964
_chemical_formula_sum            'Nb Se2'
_chemical_name_systematic        'Nb Se2'
_space_group_IT_number           194
_symmetry_space_group_name_Hall  '-P 6c 2c'
_symmetry_space_group_name_H-M   'P 63/m m c'
_cell_angle_alpha                90
_cell_angle_beta                 90
_cell_angle_gamma                120
_cell_formula_units_Z            2
_cell_length_a                   3.442
_cell_length_b                   3.442
_cell_length_c                   12.54
_cell_volume                     128.662
_citation_journal_id_ASTM        ACSAA4
_cod_data_source_file            Selte_ACSAA4_1964_851.cif
_cod_data_source_block           Nb1Se2
_cod_original_cell_volume        128.6619
_cod_original_formula_sum        'Nb1 Se2'
_cod_database_code               1539310
loop_
_symmetry_equiv_pos_as_xyz
x,y,z
x-y,x,z+1/2
-y,x-y,z
-x,-y,z+1/2
-x+y,-x,z
y,-x+y,z+1/2
-y,-x,-z+1/2
x-y,-y,-z
x,x-y,-z+1/2
y,x,-z
-x+y,y,-z+1/2
-x,-x+y,-z
-x,-y,-z
-x+y,-x,-z-1/2
y,-x+y,-z
x,y,-z-1/2
x-y,x,-z
-y,x-y,-z-1/2
y,x,z-1/2
-x+y,y,z
-x,-x+y,z-1/2
-y,-x,z
x-y,-y,z-1/2
x,x-y,z
loop_
_atom_site_label
_atom_site_type_symbol
_atom_site_fract_x
_atom_site_fract_y
_atom_site_fract_z
_atom_site_occupancy
_atom_site_U_iso_or_equiv
Nb1 Nb 0 0 0.25 1 0.0
Se1 Se 0.3333 0.6667 0.384 1 0.0
