#------------------------------------------------------------------------------
#$Date: 2015-10-14 14:42:00 +0300 (Wed, 14 Oct 2015) $
#$Revision: 168528 $
#$URL: svn://www.crystallography.net/cod/cif/1/53/95/1539581.cif $
#------------------------------------------------------------------------------
#
# This file is available in the Crystallography Open Database (COD),
# http://www.crystallography.net/
#
# All data on this site have been placed in the public domain by the
# contributors.
#
data_1539581
loop_
_publ_author_name
'von Schnering, H.G.'
'Meyer, T.'
'Hoenle, W.'
'Schmettow, W.'
'Kliche, G.'
'Hinze, U.'
'Bauhofer, W.'
_publ_section_title
;
 Tetrarubidiumhexaphosphid und Tetracaesiumhexaphosphid: Darstellung,
 Struktur und Eigenschaften von Rb4 P6 und Cs4 P6
;
_journal_name_full
'Zeitschrift fuer Anorganische und Allgemeine Chemie'
_journal_page_first              261
_journal_page_last               279
_journal_volume                  553
_journal_year                    1987
_chemical_formula_sum            'P6 Rb4'
_chemical_name_systematic        'Rb4 P6'
_space_group_IT_number           69
_symmetry_space_group_name_Hall  '-F 2 2'
_symmetry_space_group_name_H-M   'F m m m'
_cell_angle_alpha                90
_cell_angle_beta                 90
_cell_angle_gamma                90
_cell_formula_units_Z            4
_cell_length_a                   9.641
_cell_length_b                   14.629
_cell_length_c                   9.01
_cell_volume                     1270.754
_citation_journal_id_ASTM        ZAACAB
_cod_data_source_file            vonSchnering_ZAACAB_1987_1896.cif
_cod_data_source_block           P6Rb4
_cod_database_code               1539581
loop_
_symmetry_equiv_pos_as_xyz
x,y,z
-x,-y,z
x,-y,-z
-x,y,-z
-x,-y,-z
x,y,-z
-x,y,z
x,-y,z
x,y+1/2,z+1/2
-x,-y+1/2,z+1/2
x,-y+1/2,-z+1/2
-x,y+1/2,-z+1/2
-x,-y+1/2,-z+1/2
x,y+1/2,-z+1/2
-x,y+1/2,z+1/2
x,-y+1/2,z+1/2
x+1/2,y,z+1/2
-x+1/2,-y,z+1/2
x+1/2,-y,-z+1/2
-x+1/2,y,-z+1/2
-x+1/2,-y,-z+1/2
x+1/2,y,-z+1/2
-x+1/2,y,z+1/2
x+1/2,-y,z+1/2
x+1/2,y+1/2,z
-x+1/2,-y+1/2,z
x+1/2,-y+1/2,-z
-x+1/2,y+1/2,-z
-x+1/2,-y+1/2,-z
x+1/2,y+1/2,-z
-x+1/2,y+1/2,z
x+1/2,-y+1/2,z
loop_
_atom_site_label
_atom_site_type_symbol
_atom_site_fract_x
_atom_site_fract_y
_atom_site_fract_z
_atom_site_occupancy
_atom_site_U_iso_or_equiv
Rb1 Rb+1 0.282 0 0 1 0.0
Rb2 Rb+1 0.25 0.25 0.25 1 0.0
P2 P 0 0.0735 0.2068 1 0.0
P1 P 0 0.1481 0 1 0.0
