#------------------------------------------------------------------------------
#$Date: 2016-02-13 21:28:24 +0200 (Sat, 13 Feb 2016) $
#$Revision: 176429 $
#$URL: svn://www.crystallography.net/cod/cif/1/53/97/1539794.cif $
#------------------------------------------------------------------------------
#
# This file is available in the Crystallography Open Database (COD),
# http://www.crystallography.net/
#
# All data on this site have been placed in the public domain by the
# contributors.
#
data_1539794
loop_
_publ_author_name
'Blazina, Z.'
_publ_section_title
;
 Structural and magnetic studies of the REPt5-xMx (RE = La, Nd; M = Al,
 Ga, In) systems
;
_journal_name_full               'Journal of Alloys Compd.'
_journal_page_first              251
_journal_page_last               254
_journal_volume                  216
_journal_year                    1994
_chemical_formula_sum            'Nd Pt5'
_chemical_name_systematic        'Nd Pt5'
_space_group_IT_number           191
_symmetry_space_group_name_Hall  '-P 6 2'
_symmetry_space_group_name_H-M   'P 6/m m m'
_cell_angle_alpha                90
_cell_angle_beta                 90
_cell_angle_gamma                120
_cell_formula_units_Z            1
_cell_length_a                   5.346
_cell_length_b                   5.346
_cell_length_c                   4.392
_cell_volume                     108.705
_citation_journal_id_ASTM        JALCEU
_cod_data_source_file            Blazina_JALCEU_1994_1013.cif
_cod_data_source_block           Nd1Pt5
_cod_original_cell_volume        108.7054
_cod_original_formula_sum        'Nd1 Pt5'
_cod_database_code               1539794
loop_
_symmetry_equiv_pos_as_xyz
x,y,z
x-y,x,z
-y,x-y,z
-x,-y,z
-x+y,-x,z
y,-x+y,z
-y,-x,-z
x-y,-y,-z
x,x-y,-z
y,x,-z
-x+y,y,-z
-x,-x+y,-z
-x,-y,-z
-x+y,-x,-z
y,-x+y,-z
x,y,-z
x-y,x,-z
-y,x-y,-z
y,x,z
-x+y,y,z
-x,-x+y,z
-y,-x,z
x-y,-y,z
x,x-y,z
loop_
_atom_site_label
_atom_site_type_symbol
_atom_site_fract_x
_atom_site_fract_y
_atom_site_fract_z
_atom_site_occupancy
_atom_site_U_iso_or_equiv
Pt1 Pt 0.3333 0.6667 0 1 0.0
Pt2 Pt 0.5 0 0.5 1 0.0
Nd1 Nd 0 0 0 1 0.0
