#------------------------------------------------------------------------------
#$Date: 2016-02-13 21:28:24 +0200 (Sat, 13 Feb 2016) $
#$Revision: 176429 $
#$URL: svn://www.crystallography.net/cod/cif/1/53/94/1539479.cif $
#------------------------------------------------------------------------------
#
# This file is available in the Crystallography Open Database (COD),
# http://www.crystallography.net/
#
# All data on this site have been placed in the public domain by the
# contributors.
#
data_1539479
loop_
_publ_author_name
'Zhuravlev, N.N.'
'Smirnova, Ye.M.'
'Zhdanov, G.S.'
_publ_section_title
;
 Investigation of ternary solid solutions on the basis of superconducting
 compounds
;
_journal_name_full               'Physics of Metals and Metallography'
_journal_page_first              55
_journal_page_last               61
_journal_volume                  13
_journal_year                    1962
_chemical_formula_sum            'Pb Pt'
_chemical_name_systematic        'Pb Pt'
_space_group_IT_number           194
_symmetry_space_group_name_Hall  '-P 6c 2c'
_symmetry_space_group_name_H-M   'P 63/m m c'
_cell_angle_alpha                90
_cell_angle_beta                 90
_cell_angle_gamma                120
_cell_formula_units_Z            2
_cell_length_a                   4.26
_cell_length_b                   4.26
_cell_length_c                   5.47
_cell_volume                     85.968
_citation_journal_id_ASTM        PHMMA6
_cod_data_source_file            Zhuravlev_PHMMA6_1962_1321.cif
_cod_data_source_block           Pb1Pt1
_cod_original_cell_volume        85.96807
_cod_original_formula_sum        'Pb1 Pt1'
_cod_database_code               1539479
loop_
_symmetry_equiv_pos_as_xyz
x,y,z
x-y,x,z+1/2
-y,x-y,z
-x,-y,z+1/2
-x+y,-x,z
y,-x+y,z+1/2
-y,-x,-z+1/2
x-y,-y,-z
x,x-y,-z+1/2
y,x,-z
-x+y,y,-z+1/2
-x,-x+y,-z
-x,-y,-z
-x+y,-x,-z-1/2
y,-x+y,-z
x,y,-z-1/2
x-y,x,-z
-y,x-y,-z-1/2
y,x,z-1/2
-x+y,y,z
-x,-x+y,z-1/2
-y,-x,z
x-y,-y,z-1/2
x,x-y,z
loop_
_atom_site_label
_atom_site_type_symbol
_atom_site_fract_x
_atom_site_fract_y
_atom_site_fract_z
_atom_site_occupancy
_atom_site_U_iso_or_equiv
Pb1 Pb 0 0 0 1 0.0
Pt1 Pt 0.3333 0.6667 0.25 1 0.0
