#------------------------------------------------------------------------------
#$Date: 2015-10-13 21:42:36 +0300 (Tue, 13 Oct 2015) $
#$Revision: 167737 $
#$URL: svn://www.crystallography.net/cod/cif/1/53/90/1539011.cif $
#------------------------------------------------------------------------------
#
# This file is available in the Crystallography Open Database (COD),
# http://www.crystallography.net/
#
# All data on this site have been placed in the public domain by the
# contributors.
#
data_1539011
loop_
_publ_author_name
'Raub, E.'
'Beeskow, H.'
'Fritzsche, W.'
_publ_section_title
;
 Die Struktur der festen Tantal-Ruthenium Legierungen
;
_journal_name_full               'Zeitschrift fuer Metallkunde'
_journal_page_first              451
_journal_page_last               454
_journal_volume                  54
_journal_year                    1963
_chemical_formula_sum            'Ru0.8 Ta1.2'
_chemical_name_systematic        'Ru0.8 Ta1.2'
_space_group_IT_number           123
_symmetry_space_group_name_Hall  '-P 4 2'
_symmetry_space_group_name_H-M   'P 4/m m m'
_cell_angle_alpha                90
_cell_angle_beta                 90
_cell_angle_gamma                90
_cell_formula_units_Z            2
_cell_length_a                   4.404
_cell_length_b                   4.404
_cell_length_c                   3.27
_cell_volume                     63.422
_citation_journal_id_ASTM        ZEMTAE
_cod_data_source_file            Raub_ZEMTAE_1963_1705.cif
_cod_data_source_block           Ru0.8Ta1.2
_cod_original_cell_volume        63.42235
_cod_database_code               1539011
loop_
_symmetry_equiv_pos_as_xyz
x,y,z
-y,x,z
-x,-y,z
y,-x,z
x,-y,-z
y,x,-z
-x,y,-z
-y,-x,-z
-x,-y,-z
y,-x,-z
x,y,-z
-y,x,-z
-x,y,z
-y,-x,z
x,-y,z
y,x,z
loop_
_atom_site_label
_atom_site_type_symbol
_atom_site_fract_x
_atom_site_fract_y
_atom_site_fract_z
_atom_site_occupancy
_atom_site_U_iso_or_equiv
Ta2 Ta 0 0 0 1 0.0
Ta3 Ta 0.5 0.5 0 1 0.0
Ta1 Ta 0 0.5 0.5 0.2 0.0
Ru1 Ru 0 0.5 0.5 0.8 0.0
