#------------------------------------------------------------------------------
#$Date: 2015-10-13 21:37:22 +0300 (Tue, 13 Oct 2015) $
#$Revision: 167727 $
#$URL: svn://www.crystallography.net/cod/cif/1/53/90/1539002.cif $
#------------------------------------------------------------------------------
#
# This file is available in the Crystallography Open Database (COD),
# http://www.crystallography.net/
#
# All data on this site have been placed in the public domain by the
# contributors.
#
data_1539002
loop_
_publ_author_name
'Raub, E.'
_publ_section_title
;
 Die Legierungen der Platinmetalle mit Molybdaen
;
_journal_name_full               'Zeitschrift fuer Metallkunde'
_journal_page_first              23
_journal_page_last               30
_journal_volume                  45
_journal_year                    1954
_chemical_formula_sum            'Mo1.16 Pt0.84'
_chemical_name_systematic        'Mo1.16 Pt0.84'
_space_group_IT_number           194
_symmetry_space_group_name_Hall  '-P 6c 2c'
_symmetry_space_group_name_H-M   'P 63/m m c'
_cell_angle_alpha                90
_cell_angle_beta                 90
_cell_angle_gamma                120
_cell_formula_units_Z            1
_cell_length_a                   2.793
_cell_length_b                   2.793
_cell_length_c                   4.488
_cell_volume                     30.320
_citation_journal_id_ASTM        ZEMTAE
_cod_data_source_file            Raub_ZEMTAE_1954_712.cif
_cod_data_source_block           Mo1.16Pt0.84
_cod_original_cell_volume        30.31973
_cod_database_code               1539002
loop_
_symmetry_equiv_pos_as_xyz
x,y,z
x-y,x,z+1/2
-y,x-y,z
-x,-y,z+1/2
-x+y,-x,z
y,-x+y,z+1/2
-y,-x,-z+1/2
x-y,-y,-z
x,x-y,-z+1/2
y,x,-z
-x+y,y,-z+1/2
-x,-x+y,-z
-x,-y,-z
-x+y,-x,-z-1/2
y,-x+y,-z
x,y,-z-1/2
x-y,x,-z
-y,x-y,-z-1/2
y,x,z-1/2
-x+y,y,z
-x,-x+y,z-1/2
-y,-x,z
x-y,-y,z-1/2
x,x-y,z
loop_
_atom_site_label
_atom_site_type_symbol
_atom_site_fract_x
_atom_site_fract_y
_atom_site_fract_z
_atom_site_occupancy
_atom_site_U_iso_or_equiv
Pt1 Pt 0.3333 0.6667 0.25 0.42 0.0
Mo1 Mo 0.3333 0.6667 0.25 0.58 0.0
