#------------------------------------------------------------------------------
#$Date: 2016-02-13 21:28:24 +0200 (Sat, 13 Feb 2016) $
#$Revision: 176429 $
#$URL: svn://www.crystallography.net/cod/cif/1/53/93/1539396.cif $
#------------------------------------------------------------------------------
#
# This file is available in the Crystallography Open Database (COD),
# http://www.crystallography.net/
#
# All data on this site have been placed in the public domain by the
# contributors.
#
data_1539396
loop_
_publ_author_name
'Sinha, A.K.'
_publ_section_title
;
 Close-packed ordered A B3 structure in ternary alloys of certain
 transition metals
;
_journal_name_full
'Transactions of the Metallurgical Society of Aime'
_journal_page_first              911
_journal_page_last               917
_journal_volume                  245
_journal_year                    1969
_chemical_formula_sum            'Ni3 V'
_chemical_name_systematic        'Ni3 V'
_space_group_IT_number           139
_symmetry_space_group_name_Hall  '-I 4 2'
_symmetry_space_group_name_H-M   'I 4/m m m'
_cell_angle_alpha                90
_cell_angle_beta                 90
_cell_angle_gamma                90
_cell_formula_units_Z            2
_cell_length_a                   3.522
_cell_length_b                   3.522
_cell_length_c                   7.184
_cell_volume                     89.114
_citation_journal_id_ASTM        TMSAAB
_cod_data_source_file            Sinha_TMSAAB_1969_1120.cif
_cod_data_source_block           Ni3V1
_cod_original_cell_volume        89.11382
_cod_original_formula_sum        'Ni3 V1'
_cod_database_code               1539396
loop_
_symmetry_equiv_pos_as_xyz
x,y,z
-y,x,z
-x,-y,z
y,-x,z
x,-y,-z
y,x,-z
-x,y,-z
-y,-x,-z
-x,-y,-z
y,-x,-z
x,y,-z
-y,x,-z
-x,y,z
-y,-x,z
x,-y,z
y,x,z
x+1/2,y+1/2,z+1/2
-y+1/2,x+1/2,z+1/2
-x+1/2,-y+1/2,z+1/2
y+1/2,-x+1/2,z+1/2
x+1/2,-y+1/2,-z+1/2
y+1/2,x+1/2,-z+1/2
-x+1/2,y+1/2,-z+1/2
-y+1/2,-x+1/2,-z+1/2
-x+1/2,-y+1/2,-z+1/2
y+1/2,-x+1/2,-z+1/2
x+1/2,y+1/2,-z+1/2
-y+1/2,x+1/2,-z+1/2
-x+1/2,y+1/2,z+1/2
-y+1/2,-x+1/2,z+1/2
x+1/2,-y+1/2,z+1/2
y+1/2,x+1/2,z+1/2
loop_
_atom_site_label
_atom_site_type_symbol
_atom_site_fract_x
_atom_site_fract_y
_atom_site_fract_z
_atom_site_occupancy
_atom_site_U_iso_or_equiv
Ni1 Ni 0 0 0.5 1 0.0
V1 V 0 0 0 1 0.0
Ni2 Ni 0 0.5 0.25 1 0.0
