#------------------------------------------------------------------------------
#$Date: 2016-02-13 21:28:24 +0200 (Sat, 13 Feb 2016) $
#$Revision: 176429 $
#$URL: svn://www.crystallography.net/cod/cif/1/53/92/1539263.cif $
#------------------------------------------------------------------------------
#
# This file is available in the Crystallography Open Database (COD),
# http://www.crystallography.net/
#
# All data on this site have been placed in the public domain by the
# contributors.
#
data_1539263
loop_
_publ_author_name
'Wallbaum, H.J.'
_publ_section_title
;
 Zur Legierungschemie der Uebergangsmetalle
;
_journal_name_full               Naturwissenschaften
_journal_page_first              91
_journal_page_last               91
_journal_volume                  31
_journal_year                    1943
_chemical_formula_sum            'Pt3 Ti'
_chemical_name_systematic        'Pt3 Ti'
_space_group_IT_number           221
_symmetry_space_group_name_Hall  '-P 4 2 3'
_symmetry_space_group_name_H-M   'P m -3 m'
_cell_angle_alpha                90
_cell_angle_beta                 90
_cell_angle_gamma                90
_cell_formula_units_Z            1
_cell_length_a                   3.897
_cell_length_b                   3.897
_cell_length_c                   3.897
_cell_volume                     59.182
_citation_journal_id_ASTM        NATWAY
_cod_data_source_file            Wallbaum_NATWAY_1943_1546.cif
_cod_data_source_block           Pt3Ti1
_cod_original_cell_volume        59.18222
_cod_original_formula_sum        'Pt3 Ti1'
_cod_database_code               1539263
loop_
_symmetry_equiv_pos_as_xyz
x,y,z
-y,x,z
-x,-y,z
y,-x,z
x,-y,-z
y,x,-z
-x,y,-z
-y,-x,-z
z,x,y
-x,z,y
-z,-x,y
x,-z,y
z,-x,-y
x,z,-y
-z,x,-y
-x,-z,-y
y,z,x
y,-z,-x
z,y,-x
-y,z,-x
-z,-y,-x
-y,-z,x
z,-y,x
-z,y,x
-x,-y,-z
y,-x,-z
x,y,-z
-y,x,-z
-x,y,z
-y,-x,z
x,-y,z
y,x,z
-z,-x,-y
x,-z,-y
z,x,-y
-x,z,-y
-z,x,y
-x,-z,y
z,-x,y
x,z,y
-y,-z,-x
-y,z,x
-z,-y,x
y,-z,x
z,y,x
y,z,-x
-z,y,-x
z,-y,-x
loop_
_atom_site_label
_atom_site_type_symbol
_atom_site_fract_x
_atom_site_fract_y
_atom_site_fract_z
_atom_site_occupancy
_atom_site_U_iso_or_equiv
Ti1 Ti 0 0 0 1 0.0
Pt1 Pt 0 0.5 0.5 1 0.0
