#------------------------------------------------------------------------------
#$Date: 2015-10-14 12:03:24 +0300 (Wed, 14 Oct 2015) $
#$Revision: 168145 $
#$URL: svn://www.crystallography.net/cod/cif/1/53/92/1539292.cif $
#------------------------------------------------------------------------------
#
# This file is available in the Crystallography Open Database (COD),
# http://www.crystallography.net/
#
# All data on this site have been placed in the public domain by the
# contributors.
#
data_1539292
loop_
_publ_author_name
'Schubert, K.'
'Lukas, H.L.'
'Bhan, S.'
'Meissner, H.G.'
_publ_section_title
;
 Zum Aufbau der Systeme Kobalt-Gallium, Palladium-Gallium, Palladium-Zinn
 und verwandter Legierungen
;
_journal_name_full               'Zeitschrift fuer Metallkunde'
_journal_page_first              534
_journal_page_last               540
_journal_volume                  50
_journal_year                    1959
_chemical_formula_sum            'In3 Pd5'
_chemical_name_systematic        'In3 Pd5'
_space_group_IT_number           55
_symmetry_space_group_name_Hall  '-P 2 2ab'
_symmetry_space_group_name_H-M   'P b a m'
_cell_angle_alpha                90
_cell_angle_beta                 90
_cell_angle_gamma                90
_cell_formula_units_Z            2
_cell_length_a                   11.02
_cell_length_b                   5.6
_cell_length_c                   4.239
_cell_volume                     261.597
_citation_journal_id_ASTM        ZEMTAE
_cod_data_source_file            Schubert_ZEMTAE_1959_263.cif
_cod_data_source_block           In3Pd5
_cod_original_cell_volume        261.5972
_cod_database_code               1539292
loop_
_symmetry_equiv_pos_as_xyz
x,y,z
-x,-y,z
x+1/2,-y+1/2,-z
-x+1/2,y+1/2,-z
-x,-y,-z
x,y,-z
-x-1/2,y-1/2,z
x-1/2,-y-1/2,z
loop_
_atom_site_label
_atom_site_type_symbol
_atom_site_fract_x
_atom_site_fract_y
_atom_site_fract_z
_atom_site_occupancy
_atom_site_U_iso_or_equiv
Pd2 Pd 0.23 0.09 0 1 0.0
In2 In 0.15 0.34 0.5 1 0.0
Pd1 Pd 0 0.5 0 1 0.0
Pd3 Pd 0.39 0.32 0.5 1 0.0
In1 In 0 0 0 1 0.0
