#------------------------------------------------------------------------------
#$Date: 2016-02-13 21:28:24 +0200 (Sat, 13 Feb 2016) $
#$Revision: 176429 $
#$URL: svn://www.crystallography.net/cod/cif/1/53/96/1539677.cif $
#------------------------------------------------------------------------------
#
# This file is available in the Crystallography Open Database (COD),
# http://www.crystallography.net/
#
# All data on this site have been placed in the public domain by the
# contributors.
#
data_1539677
loop_
_publ_author_name
'Ehrlich, P.'
_publ_section_title
;
 Ueber Titanselenide und -telluride
;
_journal_name_full
'Zeitschrift fuer Anorganische und Allgemeine Chemie'
_journal_page_first              1
_journal_page_last               1
_journal_volume                  260
_journal_year                    1949
_chemical_formula_sum            'Te2 Ti'
_chemical_name_systematic        'Ti Te2'
_space_group_IT_number           164
_symmetry_space_group_name_Hall  '-P 3 2"'
_symmetry_space_group_name_H-M   'P -3 m 1'
_cell_angle_alpha                90
_cell_angle_beta                 90
_cell_angle_gamma                120
_cell_formula_units_Z            1
_cell_length_a                   3.765
_cell_length_b                   3.765
_cell_length_c                   6.526
_cell_volume                     80.114
_citation_journal_id_ASTM        ZAACAB
_cod_data_source_file            Ehrlich_ZAACAB_1949_130.cif
_cod_data_source_block           Te2Ti1
_cod_original_cell_volume        80.11387
_cod_original_formula_sum        'Te2 Ti1'
_cod_database_code               1539677
loop_
_symmetry_equiv_pos_as_xyz
x,y,z
-y,x-y,z
-x+y,-x,z
y,x,-z
-x,-x+y,-z
x-y,-y,-z
-x,-y,-z
y,-x+y,-z
x-y,x,-z
-y,-x,z
x,x-y,z
-x+y,y,z
loop_
_atom_site_label
_atom_site_type_symbol
_atom_site_fract_x
_atom_site_fract_y
_atom_site_fract_z
_atom_site_occupancy
_atom_site_U_iso_or_equiv
Ti1 Ti 0 0 0 1 0.0
Te1 Te 0.3333 0.6667 0.25 1 0.0
