#------------------------------------------------------------------------------
#$Date: 2015-07-10 19:03:34 +0300 (Fri, 10 Jul 2015) $
#$Revision: 142809 $
#$URL: svn://www.crystallography.net/cod/cif/2/30/05/2300516.cif $
#------------------------------------------------------------------------------
#
# This file is available in the Crystallography Open Database (COD),
# http://www.crystallography.net/. The original data for this entry
# were provided by IUCr Journals, http://journals.iucr.org/.
#
# The file may be used within the scientific community so long as
# proper attribution is given to the journal article from which the
# data were obtained.
#
data_2300516
loop_
_publ_author_name
'Mueller, M.H.'
'Caton, R.'
'Beyerlein, R.A.'
'Brun, T.O.'
'Jorgensen, J.D.'
'Satterthwaite, C.B.'
_publ_section_title
;
 Structure of Th4 D15 from measurement at the argonne ZING-P pulsed
 neutron source
;
_journal_name_full               'Journal of Applied Crystallography'
_journal_page_first              79
_journal_page_last               83
_journal_volume                  10
_journal_year                    1977
_chemical_formula_sum            'D15 Th4'
_chemical_name_systematic        'Th4 D15'
_space_group_IT_number           220
_symmetry_space_group_name_Hall  'I -4bd 2c 3'
_symmetry_space_group_name_H-M   'I -4 3 d'
_cell_angle_alpha                90
_cell_angle_beta                 90
_cell_angle_gamma                90
_cell_formula_units_Z            4
_cell_length_a                   9.11
_cell_length_b                   9.11
_cell_length_c                   9.11
_cell_volume                     756.058
_citation_journal_id_ASTM        JACGAR
_cod_data_source_file            Mueller_JACGAR_1977_531.cif
_cod_data_source_block           D15Th4
_cod_original_cell_volume        756.0579
_cod_database_code               2300516
loop_
_symmetry_equiv_pos_as_xyz
x,y,z
y+1/4,-x+3/4,-z+1/4
-x,-y+1/2,z
-y+3/4,x+3/4,-z+1/4
x,-y,-z+1/2
-y+1/4,-x+3/4,z+3/4
-x,y+1/2,-z+1/2
y+3/4,x+3/4,z+3/4
z,x,y
x+1/4,-z+3/4,-y+1/4
-z,-x+1/2,y
-x+3/4,z+3/4,-y+1/4
z,-x,-y+1/2
-x+1/4,-z+3/4,y+3/4
-z,x+1/2,-y+1/2
x+3/4,z+3/4,y+3/4
y,z,x
y,-z,-x+1/2
-z+1/4,-y+3/4,x+3/4
-y,z+1/2,-x+1/2
z+1/4,y+1/4,x+1/4
-y+1/2,-z,x+1/2
-z+1/4,y+1/4,-x+3/4
z+3/4,-y+1/4,-x+3/4
x+1/2,y+1/2,z+1/2
y+3/4,-x+5/4,-z+3/4
-x+1/2,-y+1,z+1/2
-y+5/4,x+5/4,-z+3/4
x+1/2,-y+1/2,-z+1
-y+3/4,-x+5/4,z+5/4
-x+1/2,y+1,-z+1
y+5/4,x+5/4,z+5/4
z+1/2,x+1/2,y+1/2
x+3/4,-z+5/4,-y+3/4
-z+1/2,-x+1,y+1/2
-x+5/4,z+5/4,-y+3/4
z+1/2,-x+1/2,-y+1
-x+3/4,-z+5/4,y+5/4
-z+1/2,x+1,-y+1
x+5/4,z+5/4,y+5/4
y+1/2,z+1/2,x+1/2
y+1/2,-z+1/2,-x+1
-z+3/4,-y+5/4,x+5/4
-y+1/2,z+1,-x+1
z+3/4,y+3/4,x+3/4
-y+1,-z+1/2,x+1
-z+3/4,y+3/4,-x+5/4
z+5/4,-y+3/4,-x+5/4
loop_
_atom_site_label
_atom_site_type_symbol
_atom_site_fract_x
_atom_site_fract_y
_atom_site_fract_z
_atom_site_occupancy
_atom_site_U_iso_or_equiv
Th1 Th 0.2066 0.2066 0.2066 1 0.0
D1 D 0.375 0 0.25 1 0.0
D2 D 0.3706 0.2155 0.4048 1 0.0
