#------------------------------------------------------------------------------
#$Date: 2015-07-10 04:32:56 +0300 (Fri, 10 Jul 2015) $
#$Revision: 141522 $
#$URL: svn://www.crystallography.net/cod/cif/2/30/05/2300515.cif $
#------------------------------------------------------------------------------
#
# This file is available in the Crystallography Open Database (COD),
# http://www.crystallography.net/. The original data for this entry
# were provided by IUCr Journals, http://journals.iucr.org/.
#
# The file may be used within the scientific community so long as
# proper attribution is given to the journal article from which the
# data were obtained.
#
data_2300515
loop_
_publ_author_name
'Koksbang, R.'
'Rasmussen, S.E.'
'Hazell, R.G.'
_publ_section_title
;
 Critical temperatures of superconductivity and neutron diffraction
 studies at 293 and at 10 K of Mo-Ir single crystal of A15 structure
;
_journal_name_full               'Journal of Applied Crystallography'
_journal_page_first              23
_journal_page_last               25
_journal_volume                  22
_journal_year                    1989
_chemical_formula_sum            'Ir0.94 Mo3.06'
_chemical_name_systematic        'Ir0.94 Mo3.06'
_space_group_IT_number           223
_symmetry_space_group_name_Hall  '-P 4n 2 3'
_symmetry_space_group_name_H-M   'P m -3 n'
_cell_angle_alpha                90
_cell_angle_beta                 90
_cell_angle_gamma                90
_cell_formula_units_Z            2
_cell_length_a                   4.958
_cell_length_b                   4.958
_cell_length_c                   4.958
_cell_volume                     121.876
_citation_journal_id_ASTM        JACGAR
_cod_data_source_file            Koksbang_JACGAR_1989_765.cif
_cod_data_source_block           Ir0.94Mo3.06
_cod_original_cell_volume        121.8764
_cod_database_code               2300515
loop_
_symmetry_equiv_pos_as_xyz
x,y,z
-y+1/2,x+1/2,z+1/2
-x,-y,z
y+1/2,-x+1/2,z+1/2
x,-y,-z
y+1/2,x+1/2,-z+1/2
-x,y,-z
-y+1/2,-x+1/2,-z+1/2
z,x,y
-x+1/2,z+1/2,y+1/2
-z,-x,y
x+1/2,-z+1/2,y+1/2
z,-x,-y
x+1/2,z+1/2,-y+1/2
-z,x,-y
-x+1/2,-z+1/2,-y+1/2
y,z,x
y,-z,-x
z+1/2,y+1/2,-x+1/2
-y,z,-x
-z+1/2,-y+1/2,-x+1/2
-y,-z,x
z+1/2,-y+1/2,x+1/2
-z+1/2,y+1/2,x+1/2
-x,-y,-z
y-1/2,-x-1/2,-z-1/2
x,y,-z
-y-1/2,x-1/2,-z-1/2
-x,y,z
-y-1/2,-x-1/2,z-1/2
x,-y,z
y-1/2,x-1/2,z-1/2
-z,-x,-y
x-1/2,-z-1/2,-y-1/2
z,x,-y
-x-1/2,z-1/2,-y-1/2
-z,x,y
-x-1/2,-z-1/2,y-1/2
z,-x,y
x-1/2,z-1/2,y-1/2
-y,-z,-x
-y,z,x
-z-1/2,-y-1/2,x-1/2
y,-z,x
z-1/2,y-1/2,x-1/2
y,z,-x
-z-1/2,y-1/2,-x-1/2
z-1/2,-y-1/2,-x-1/2
loop_
_atom_site_label
_atom_site_type_symbol
_atom_site_fract_x
_atom_site_fract_y
_atom_site_fract_z
_atom_site_occupancy
_atom_site_U_iso_or_equiv
Mo1 Mo 0 0 0 0.06 0.0
Ir1 Ir 0 0 0 0.94 0.0
Mo2 Mo 0.25 0 0.5 1 0.0
