#------------------------------------------------------------------------------
#$Date: 2016-06-17 04:55:25 +0300 (Fri, 17 Jun 2016) $
#$Revision: 183647 $
#$URL: file:///home/coder/svn-repositories/cod/cif/2/30/06/2300619.cif $
#------------------------------------------------------------------------------
#
# This file is available in the Crystallography Open Database (COD),
# http://www.crystallography.net/. The original data for this entry
# were provided by IUCr Journals, http://journals.iucr.org/.
#
# The file may be used within the scientific community so long as
# proper attribution is given to the journal article from which the
# data were obtained.
#
data_2300619
loop_
_publ_author_name
'Dyadkin, Vadim'
'Wright, Jon'
'Pattison, Philip'
'Chernyshov, Dmitry'
_publ_section_title
;
 Probing structural chirality with high-energy synchrotron radiation
;
_journal_coeditor_code           TO5136SUP1
_journal_issue                   3
_journal_name_full               'Journal of Applied Crystallography'
_journal_page_first              918
_journal_page_last               922
_journal_paper_doi               10.1107/S1600576716006282
_journal_volume                  49
_journal_year                    2016
_chemical_formula_sum            'Mn Si'
_chemical_formula_weight         83.03
_space_group_crystal_system      cubic
_space_group_IT_number           198
_space_group_name_Hall           'P 2ac 2ab 3'
_space_group_name_H-M_alt        'P 21 3'
_symmetry_space_group_name_Hall  'P 2ac 2ab 3'
_symmetry_space_group_name_H-M   'P 21 3'
_audit_creation_method           SHELXL-2014/7
_cell_angle_alpha                90
_cell_angle_beta                 90
_cell_angle_gamma                90
_cell_formula_units_Z            4
_cell_length_a                   4.5622(3)
_cell_length_b                   4.5622(3)
_cell_length_c                   4.5622(3)
_cell_measurement_reflns_used    715
_cell_measurement_temperature    293(2)
_cell_measurement_theta_max      32.2710
_cell_measurement_theta_min      4.2970
_cell_volume                     94.956(11)
_computing_structure_refinement  'SHELXL-2014/7 (Sheldrick, 2014)'
_diffrn_ambient_temperature      293(2)
_diffrn_measured_fraction_theta_full 0.976
_diffrn_measured_fraction_theta_max 0.976
_diffrn_measurement_device_type  Pilatus@SNBL
_diffrn_measurement_method       '\f scan'
_diffrn_radiation_monochromator  silicon
_diffrn_radiation_source         'ESRF bending magnet'
_diffrn_radiation_type           synchrotron
_diffrn_radiation_wavelength     0.68894
_diffrn_reflns_av_R_equivalents  0.0256
_diffrn_reflns_av_unetI/netI     0.0114
_diffrn_reflns_Laue_measured_fraction_full 0.976
_diffrn_reflns_Laue_measured_fraction_max 0.976
_diffrn_reflns_limit_h_max       6
_diffrn_reflns_limit_h_min       -6
_diffrn_reflns_limit_k_max       7
_diffrn_reflns_limit_k_min       -7
_diffrn_reflns_limit_l_max       6
_diffrn_reflns_limit_l_min       -6
_diffrn_reflns_number            797
_diffrn_reflns_point_group_measured_fraction_full 0.967
_diffrn_reflns_point_group_measured_fraction_max 0.977
_diffrn_reflns_theta_full        24.416
_diffrn_reflns_theta_max         32.269
_diffrn_reflns_theta_min         6.130
_exptl_absorpt_coefficient_mu    12.761
_exptl_crystal_colour            'metallic dark grey'
_exptl_crystal_density_diffrn    5.808
_exptl_crystal_description       block
_exptl_crystal_F_000             156
_refine_diff_density_max         0.959
_refine_diff_density_min         -1.294
_refine_diff_density_rms         0.324
_refine_ls_abs_structure_details
;
 Flack x determined using 46 quotients [(I+)-(I-)]/[(I+)+(I-)]
 (Parsons, Flack and Wagner, Acta Cryst. B69 (2013) 249-259).
;
_refine_ls_abs_structure_Flack   0.06(2)
_refine_ls_extinction_coef       0.63(11)
_refine_ls_extinction_expression Fc^*^=kFc[1+0.001xFc^2^\l^3^/sin(2\q)]^-1/4^
_refine_ls_extinction_method     'SHELXL-2014/7 (Sheldrick 2014'
_refine_ls_goodness_of_fit_ref   1.336
_refine_ls_hydrogen_treatment    undef
_refine_ls_matrix_type           full
_refine_ls_number_parameters     8
_refine_ls_number_reflns         127
_refine_ls_number_restraints     0
_refine_ls_restrained_S_all      1.336
_refine_ls_R_factor_all          0.0355
_refine_ls_R_factor_gt           0.0355
_refine_ls_shift/su_max          0.000
_refine_ls_shift/su_mean         0.000
_refine_ls_structure_factor_coef Fsqd
_refine_ls_weighting_details
'w=1/[\s^2^(Fo^2^)+(0.0530P)^2^] where P=(Fo^2^+2Fc^2^)/3'
_refine_ls_weighting_scheme      calc
_refine_ls_wR_factor_gt          0.0743
_refine_ls_wR_factor_ref         0.0743
_reflns_Friedel_coverage         0.568
_reflns_Friedel_fraction_full    0.950
_reflns_Friedel_fraction_max     0.979
_reflns_number_gt                127
_reflns_number_total             127
_reflns_threshold_expression     'I > 2\s(I)'
_cod_data_source_file            to5136sup1.cif
_cod_data_source_block           MnSi_18keV
_cod_depositor_comments
'Adding full bibliography for 2300619--2300621.cif.'
_cod_original_cell_volume        94.959(19)
_cod_database_code               2300619
_cod_database_fobs_code          2300619
_shelx_shelxl_version_number     2014/7
_shelx_space_group_comment
;
The symmetry employed for this shelxl refinement is uniquely defined
by the following loop, which should always be used as a source of
symmetry information in preference to the above space-group names.
They are only intended as comments.
;
_shelx_res_file
;

    cbf_a.res created by SHELXL-2014/7


TITL cbf_a.res in P2(1)3
REM Old TITL cbf in P2(1)3

REM SHELXT solution in P2(1)3
REM R1 0.076,  Rweak 0.033,  Alpha 0.030,  Orientation as input
REM Flack x =  0.112 ( 0.034 ) from Parsons' quotients
REM Formula found by SHELXT:  Si Mn

CELL  0.68894   4.56224   4.56224   4.56224   90.000   90.000   90.000
ZERR    4.000   0.0003   0.0003   0.0003    0.000    0.000    0.000
LATT -1
SYMM 1/2-X, -Y, 1/2+Z
SYMM -X, 1/2+Y, 1/2-Z
SYMM 1/2+X, 1/2-Y, -Z
SYMM Z, X, Y
SYMM 1/2+Z, 1/2-X, -Y
SYMM 1/2-Z, -X, 1/2+Y
SYMM -Z, 1/2+X, 1/2-Y
SYMM Y, Z, X
SYMM -Y, 1/2+Z, 1/2-X
SYMM 1/2+Y, 1/2-Z, -X
SYMM 1/2-Y, -Z, 1/2+X
SFAC SI MN
DISP $Si  0.07932  0.06753 278.98848!source kissel
DISP $Mn  0.33207  0.69566 2750.49312!source kissel
UNIT 4.00 4.00
L.S. 10
ACTA
LIST 4
FMAP 2
PLAN 20
WGHT    0.053000
EXTI    0.633895
FVAR       1.85459
MN01  2    0.136834    0.136834    0.136834    10.33333    0.01687    0.01687 =
         0.01687    0.00003    0.00003    0.00003
SI02  1    0.845285    0.845285    0.845285    10.33333    0.01818    0.01818 =
         0.01818   -0.00070   -0.00070   -0.00070
HKLF 4

REM  cbf_a.res in P2(1)3
REM R1 =  0.0355 for     127 Fo > 4sig(Fo)  and  0.0355 for all     127 data
REM      8 parameters refined using      0 restraints

END

WGHT      0.0530      0.0000

REM Highest difference peak  0.959,  deepest hole -1.294,  1-sigma level  0.324
Q1    1   0.0453  0.1365  0.0310  11.00000  0.05    0.96
Q2    1   0.0608  0.1479  0.2493  11.00000  0.05    0.94
Q3    1   0.2098  0.1359  0.2707  11.00000  0.05    0.91
Q4    1   0.1355  0.0087  0.2019  11.00000  0.05    0.89
Q5    1   0.1492  0.0653  0.2487  11.00000  0.05    0.86
Q6    1   0.7497  0.8646  0.7142  11.00000  0.05    0.60
Q7    1   0.9507  0.8522  0.9635  11.00000  0.05    0.42
Q8    1   0.9680  0.8617  0.7520  11.00000  0.05    0.41
Q9    1   0.8463  0.9793  0.7486  11.00000  0.05    0.41
;
_shelx_res_checksum              21011
_shelx_hkl_file
;
   1   0   0    0.42    0.32
   0  -1   0    0.35    0.36
   1   1   1 3199.98   44.19
  -1   1  -1 3161.11   45.04
  -1   0  -1 1412.65   25.16
  -1   1   0 1501.55   22.85
   0   1  -1 1588.18   26.11
   0  -1  -1 1495.53   22.30
  -1  -1   0 1722.51   27.15
   1   0  -1 1533.03   20.53
   0  -1   1 1715.15   26.87
   0   1   1 1481.70   22.66
   1  -1   0 1601.13   23.82
  -1   0   1 1377.23   20.29
   1   0   1 1466.31   26.08
   1   1   0 1669.36   27.09
   1  -1   1 2851.68   43.04
  -1  -1  -1 3033.53   41.80
   0   2   0 1893.76   31.42
   2   0   0 1894.10   29.33
   0  -2   0 1869.23   32.25
  -1   0  -2 9742.27  111.67
   1   0   2 9486.28  112.98
  -1   0   2 9392.46  107.72
   0  -2   1 9764.56  113.92
   0   2  -1 9999.00  113.48
   0   2   1 9382.92  111.44
  -2  -1   0 9818.10  110.87
   1   0  -2 9424.92  107.17
   2   1   0 9484.28  111.90
   0  -2  -1 9689.78  110.77
   2   1   1 5073.21   64.12
   1   1   2 4876.04   63.01
  -1   1  -2 4993.07   64.93
   1  -2  -1 5019.16   59.84
   1  -1  -2 4815.04   54.07
  -2   1  -1 4744.31   63.50
  -2  -1   1 4671.05   61.60
   2  -1  -1 4827.80   54.52
  -1  -1   2 4821.05   63.57
   1   2   1 5137.05   66.25
  -1   2  -1 4929.98   64.29
  -1  -2   1 5028.20   66.08
  -2   0   1 2130.33   29.51
  -1  -2   0 2283.44   37.07
   2   0  -1 2182.59   29.79
  -2   0  -1 2198.87   34.33
   1  -2   0 2148.18   34.45
  -1   2   0 2173.15   33.76
   0  -1   2 2293.00   36.41
   2   0   1 2285.24   35.22
   1   2   0 2134.15   36.49
   1   2  -1 4768.94   64.73
  -1   2   1 4860.46   58.99
  -1  -2  -1 4777.92   64.08
   2   1  -1 4864.33   62.61
  -1   1   2 4794.57   53.64
   1  -2   1 4931.95   64.56
   1  -1   2 5309.05   66.71
  -1  -1  -2 5112.29   62.85
   2  -1   1 4923.26   64.11
  -2   1   1 4778.92   54.15
  -2  -1  -1 5048.11   62.66
   1   1  -2 4646.11   62.26
   2   2   2 1643.68   29.10
  -2   2  -2 1683.91   29.39
  -1  -2   2  699.07   17.67
   1   2   2  620.92   15.63
   2  -2  -1  610.23   12.14
  -2  -1   2  644.68   15.24
  -2  -2   1  626.27   16.65
  -2   2  -1  675.47   16.16
   1  -2  -2  641.00   11.49
   2   2   0   98.42    6.24
   0  -2  -2   93.13    5.02
   0  -2   2  107.21    6.91
  -2  -2   0   90.96    5.74
   2   0  -2   94.06    4.05
  -2   0  -2  101.78    5.99
   2   0   2   92.15    5.91
  -2   0   2   86.29    3.75
  -2   2   0   89.52    5.15
   2  -2   0   94.86    5.38
   0   2  -2   95.33    6.18
   0   2   2   92.25    5.05
  -1  -2  -2  619.96   15.21
  -2   2   1  611.14   11.99
   2   1  -2  635.19   14.97
   2  -2   1  651.97   16.44
   2   2  -1  648.11   16.89
   1   2  -2  591.95   16.08
  -1   2   2  634.06   11.61
   2  -2   2 1748.34   30.54
   2   2  -2 1788.77   30.16
   0   0   3    0.43    0.43
   0   0  -3    0.30    0.32
   0   3   0    0.33    0.40
  -3   0   0    0.94    0.54
   0  -3  -1  720.12   17.54
   3  -1   0  724.38   15.90
   1   0  -3  704.70   15.07
   3   1   0  711.96   16.45
  -3  -1   0  680.19   16.13
   0  -3   1  668.49   17.51
  -1   0   3  680.52   14.99
   0   3   1  732.52   17.91
  -3   1   0  721.16   15.10
   0   3   2  807.62   17.87
   0   3  -2  776.62   18.42
  -2   0  -3  808.81   17.84
   2   0   3  760.02   18.28
   3   2   0  779.17   18.13
   0  -3   2  719.22   18.38
   3  -2   0  813.47   16.93
  -3  -2   0  695.44   16.80
   0  -3  -2  793.68   17.43
  -3   2   0  831.68   17.06
  -2   1  -3 1038.06   21.19
  -3   2  -1 1084.38   21.64
   3   2   1  930.10   20.31
   1  -3  -2  961.14   18.20
  -1  -3   2  985.11   21.44
  -3  -2   1  948.12   20.03
  -2  -1   3  959.70   19.43
   1   3   2 1031.00   21.63
   2   1   3  962.33   20.60
  -1   3  -2  904.88   21.12
   1  -1  -3 2266.53   29.96
  -1  -3   1 2178.27   36.18
  -3  -1   1 2012.10   31.76
  -1   1  -3 2229.56   36.44
   1  -3  -1 2067.99   33.49
   3   1   1 2082.40   34.38
   3  -1  -1 2086.10   29.07
  -1  -1   3 2226.96   35.65
   1   3   1 2152.97   36.40
  -1   3  -1 2187.74   35.46
   3   0  -1  472.41   11.40
  -3   0   1  453.16   10.88
  -1  -3   0  455.91   14.24
   1   3   0  452.70   14.37
   0   1  -3  439.44   13.18
   0  -1  -3  469.17   12.30
  -1   3   0  453.92   13.20
   1  -3   0  425.72   13.06
   1  -3   1 2124.57   36.37
   3   1  -1 2366.09   34.97
   1   3  -1 2209.53   36.26
  -1  -1  -3 2231.41   34.30
  -1   1   3 2159.52   30.16
   1  -1   3 2362.77   37.87
  -1  -3  -1 2019.66   35.76
  -3   1   1 2332.40   29.75
  -1   3   1 2282.18   34.62
   1   1  -3 2285.12   35.34
  -3  -1  -1 2147.00   34.90
   1  -3   2  954.77   22.00
   3  -2   1  965.59   20.47
  -1   3   2  930.43   18.34
  -2  -1  -3  924.38   19.52
   3   2  -1  931.47   20.39
  -3   2   1 1012.81   16.74
  -3  -2  -1  914.85   19.87
   2  -1   3  973.09   20.86
   1   3  -2  959.69   20.96
  -1  -3  -2  927.07   20.44
   2   1  -3  951.39   19.11
   2   3   2   71.68    4.94
   2   2   3   76.91    5.08
  -3  -2   2   80.60    5.11
   2  -3  -2   72.05    3.24
  -2  -3   2   77.24    5.30
  -3   2  -2   89.55    5.67
  -2  -2   3   74.35    5.05
  -2   3  -2   81.66    5.26
   3   1   2 4298.64   58.61
   1  -2  -3 4399.02   52.17
  -3  -1   2 4576.73   55.75
  -2   3  -1 4389.62   58.68
   1   2   3 4487.05   58.51
  -1  -2   3 4526.13   60.06
  -3   1  -2 4467.69   58.62
   2  -3  -1 4415.27   55.52
   3   0  -2 2302.44   30.89
   2  -3   0 2364.72   36.50
   0   2  -3 2376.66   37.50
   0  -2  -3 2291.21   34.04
   2   3   0 2419.14   38.73
  -3   0  -2 2178.90   35.72
   3   0   2 2364.30   37.16
   0  -2   3 2214.52   38.08
   0   2   3 2332.79   34.47
  -2  -3   0 2284.46   37.83
  -2   3   0 2330.59   36.02
  -3  -1  -2 4229.71   58.20
   2  -3   1 4481.24   59.20
   1  -2   3 4201.04   59.14
  -1  -2  -3 4282.54   56.92
  -2   3   1 4329.57   54.46
   2   3  -1 4359.21   60.00
  -2  -3  -1 4488.28   59.29
  -1   2   3 4414.51   52.29
   3  -1   2 4350.55   58.81
   1   2  -3 4504.03   58.75
   3   1  -2 4450.84   56.10
   2   2  -3   90.97    5.53
   2  -3   2   87.56    5.53
  -2  -3  -2   84.03    5.32
   3   2  -2   95.65    5.72
  -2   3   2   98.16    3.58
   2   3  -2   91.91    5.76
   3  -2   2  103.02    6.07
  -2   3  -3  916.06   18.93
  -2  -3   3  944.50   19.83
   3   2   3  884.60   18.81
   2   3   3  903.06   19.18
  -3  -2   3  872.46   18.73
  -3   2  -3  972.03   19.65
  -3  -3   2  899.34   19.24
   3   3   2  875.99   18.80
  -1  -3   3 2176.49   34.79
   1   3   3 2184.61   34.05
   3  -3  -1 2078.84   30.53
  -3  -3   1 2209.13   34.54
  -3   3  -1 2169.87   33.51
  -1   3  -3 2017.07   33.55
   1  -3  -3 2073.39   29.74
  -3  -1   3 2132.18   31.82
   3   1   3 2151.58   33.85
   3   3   1 2009.29   33.77
  -3   1  -3 2120.78   33.30
  -3  -3   0  456.70   13.24
   0  -3   3  461.61   13.68
  -3   0  -3  438.78   12.49
   3   0   3  475.36   13.51
   0   3   3  467.60   12.70
   0  -3  -3  455.50   12.46
   0   3  -3  446.99   13.16
  -3   0   3  466.39    9.35
  -3  -3  -1 2034.60   33.26
  -3   3   1 2173.68   30.44
   1  -3   3 2019.86   34.45
   3  -3   1 2013.60   33.21
  -3  -1  -3 2156.14   32.78
  -1  -3  -3 2096.95   33.22
   3  -1   3 2096.96   33.40
   3   3  -1 1986.49   33.65
  -1   3   3 2051.05   29.34
   1   3  -3 2047.32   33.48
   3   1  -3 2032.69   31.63
   3   3  -2  969.66   20.28
   2  -3   3  912.08   19.54
   3  -2   3  947.41   20.00
  -3  -3  -2  839.71   18.11
  -3  -2  -3  980.96   19.71
   3   2  -3  976.09   19.94
  -2  -3  -3  936.70   19.50
   2   3  -3  877.18   19.10
   0   0   4 5960.02   75.05
   0   0  -4 5856.99   74.54
   0  -4   0 5969.44   75.98
  -4   0   0 6033.62   71.50
   4   0   0 5928.81   72.37
   0   4   0 5892.38   75.26
   0   4  -1 1162.56   23.06
  -1   0   4 1188.19   21.85
  -1   0  -4 1221.09   23.08
   0   4   1 1133.05   23.74
  -4  -1   0 1219.12   22.11
   1   0  -4 1182.15   21.76
   0  -4  -1 1167.21   23.55
   1   0   4 1226.21   23.74
   4   1   0 1193.43   22.36
   0  -4   1 1115.67   23.30
   4   2   0  295.59   10.02
   2   0  -4  308.88    8.90
   0   4   2  339.63   11.76
   2   0   4  302.63   10.23
  -4  -2   0  302.55    9.84
  -2   0  -4  315.82   10.35
  -2   0   4  310.26    8.74
   0  -4  -2  317.07   10.72
   0   4  -2  307.75   10.37
   4  -2   0  331.09   10.10
   0  -4   2  262.71    9.92
   4   3   0  148.88    6.83
   0  -4  -3  153.16    6.88
   4  -3   0  160.16    7.02
   3   0   4  147.48    6.64
  -4   3   0  178.26    7.60
  -3   0  -4  158.12    6.66
  -4  -3   0  168.23    7.16
   0   4   3  156.09    7.13
  -3   1  -4  737.10   16.12
  -1   4  -3  668.67   15.57
   1   4   3  648.77   16.03
  -4  -3   1  651.06   15.06
   4   3   1  720.66   15.89
   1   4   2 2841.78   42.05
   4  -2  -1 2915.18   37.43
   4   2   1 2763.31   40.46
  -4   2  -1 2656.45   39.18
  -2   1  -4 2827.46   40.78
  -4  -2   1 2852.40   39.86
   1  -4  -2 2680.28   40.36
   2   1   4 2813.14   40.85
  -1   4  -2 2910.84   41.48
   2  -1  -4 2806.52   31.56
  -1  -4   2 2675.58   40.83
  -2  -1   4 2839.12   40.06
  -1   4  -1  809.53   18.37
   4  -1  -1  798.34   15.32
  -4   1  -1  798.90   16.81
   1   4   1  786.87   18.72
   1   1   4  789.57   18.28
   1  -1  -4  776.17   15.28
  -4  -1   1  753.32   16.21
   4   1   1  775.36   17.46
   1  -4  -1  756.21   17.54
  -1  -4   1  808.68   18.93
  -1   4   0    3.06    1.03
  -1  -4   0    1.90    0.86
   0  -1   4    1.58    0.79
   0  -1  -4    3.25    1.02
   0   1  -4    1.82    0.85
   0   1   4    2.59    0.94
   1   4   0    2.59    1.02
  -4   0  -1    2.97    0.97
  -4   0   1    2.48    0.77
   4   0  -1    1.85    0.70
   1  -4   1  698.35   17.35
   1   1  -4  761.35   17.58
  -1  -1  -4  704.68   16.32
  -4  -1  -1  769.10   16.94
  -4   1   1  719.59   14.06
  -1  -4  -1  710.68   17.68
   1   4  -1  686.04   16.92
   4  -1   1  701.10   16.37
   4   1  -1  707.26   15.78
   1   4  -2 2858.39   40.92
   4   2  -1 2915.73   40.59
   1  -4   2 2769.88   41.71
   2   1  -4 2760.83   40.29
  -1   4   2 2839.84   41.28
   2  -1   4 2787.80   41.14
   4  -2   1 2815.73   40.36
  -2  -1  -4 2704.79   39.80
  -4  -2  -1 2831.54   39.84
  -1  -4  -2 2929.06   41.94
   1  -4   3  745.46   16.86
   4  -3   1  702.10   15.83
   3  -1   4  758.53   16.59
  -1  -4  -3  721.62   16.56
  -2   4  -3  401.48   11.45
  -4   3  -2  357.35   10.28
  -3   2  -4  395.57   10.81
   3   2   4  352.10   10.76
  -4  -3   2  395.30   11.27
   4   3   2  385.63   10.92
   2   4   3  376.56   11.55
  -2  -4   3  412.76   11.74
   2   4   2   26.69    3.03
  -2   4  -2   29.13    3.01
  -4   2  -2   25.69    2.70
  -4  -2   2   25.31    2.69
   2   2   4   27.27    2.99
  -2   2  -4   22.51    2.51
   4   2   2   25.48    2.73
  -2  -4   2   28.03    3.04
  -1  -2   4  573.60   15.48
   2   4   1  637.98   16.39
  -1   2  -4  535.43   14.41
   1  -2  -4  562.33   12.03
   4  -1  -2  597.74   10.01
   1   2   4  576.46   15.03
  -4  -1   2  569.89   13.61
  -2   4  -1  551.49   14.58
   4   1   2  590.39   14.49
  -2  -4   1  597.76   15.54
  -4   1  -2  593.59   14.39
   2  -4   0  306.76   10.53
  -2   4   0  332.06   10.95
  -4   0  -2  326.89   10.37
   0   2   4  298.52   10.34
  -4   0   2  329.57    8.67
   4   0   2  323.99   10.67
   0   2  -4  340.37   11.31
  -2  -4   0  317.23   11.15
   4   0  -2  314.15    8.50
   2   4   0  318.23   11.21
   4   1  -2  646.73   14.51
  -1   2   4  555.02   11.70
   4  -1   2  621.99   15.08
   1  -2   4  653.56   15.99
  -4   1   2  526.76    9.16
  -4  -1  -2  626.18   14.48
   2   4  -1  587.64   15.28
   1   2  -4  601.60   15.26
  -2  -4  -1  683.66   16.44
  -2   4   1  592.72   14.50
  -1  -2  -4  618.49   14.84
   4  -2   2   16.76    2.24
   2  -4   2   14.21    2.22
   2   2  -4   13.66    2.09
   4   2  -2   15.14    2.19
   2  -2   4   17.67    2.30
  -4  -2  -2   18.42    2.30
  -2  -4  -2   13.57    2.11
  -2  -2  -4   13.39    1.99
   2   4  -2   13.74    2.09
   2  -4   3  422.82   12.17
   4  -3   2  348.54   10.05
   3  -2   4  371.80   10.57
  -3  -2  -4  382.69   10.62
  -4  -3  -2  337.01   10.07
   2   4  -3  344.11   10.43
   4   3  -2  402.76   11.52
  -4   3  -3  255.24    8.03
  -3   3  -4  268.37    8.47
   3   3   4  254.39    8.46
  -4  -3   3  284.46    9.26
   4   3   3  253.12    8.35
  -3  -4   3  252.81    8.68
   3   4   3  266.74    8.91
  -3  -3   4  272.30    9.10
  -2   3  -4  678.41   15.00
  -4   2  -3  742.38   16.11
   2   3   4  659.96   15.52
   4   2   3  663.67   14.79
  -3  -4   2  695.14   15.76
  -2  -3   4  706.88   16.18
   3   4   2  697.16   15.77
  -1  -3   4  246.11    9.39
   3   4   1  234.52    8.73
   4   1   3  237.23    8.73
  -4  -1   3  259.76    8.61
  -3   4  -1  263.42    9.48
   3  -4   0   37.46    3.53
   0  -3  -4   37.52    3.33
  -3   4   0   34.88    3.41
   0  -3   4   32.59    3.32
   4   0   3   35.66    3.31
  -4   0  -3   33.80    3.07
   0   3   4   36.92    3.42
   0   3  -4   31.25    3.14
   3  -4   1  288.55   10.29
  -4  -1  -3  276.88    8.99
  -3  -4  -1  273.49    9.30
   1   3  -4  275.66    9.61
   2   3  -4  640.54   15.25
   4   2  -3  674.78   15.78
   2  -3   4  637.24   14.92
   4  -2   3  689.85   15.41
  -4  -2  -3  672.65   14.73
  -2  -3  -4  642.96   15.24
   3   4  -2  664.96   15.59
  -3  -4  -2  664.42   15.24
   3  -3   4  270.45    8.61
   4  -3   3  242.89    7.86
   4   3  -3  253.33    8.85
  -3  -3  -4  243.48    8.07
  -4  -3  -3  236.37    7.99
  -3  -4  -3  247.31    8.44
   3   4  -3  245.20    8.58
   3   3  -4  251.73    8.77
  -4   4  -4  829.48   14.60
   4   4   4  860.97   15.53
  -4   3  -4   41.56    2.92
  -3   4  -4   42.38    2.98
   4   3   4   40.71    3.03
  -4   4  -3   44.03    3.03
   3   4   4   41.23    3.27
  -4  -4   3   39.41    3.12
   4   4   3   43.69    3.14
  -3  -4   4   40.71    3.20
  -2   4  -4  111.44    5.46
  -4   4  -2  103.44    5.13
  -4   2  -4  116.78    5.33
   2   4   4  106.61    5.76
   4   4   2   94.60    4.94
  -4  -4   1  292.69    9.30
  -1  -4   4  325.29    9.97
   0  -4   4 1966.17   30.42
   4   4   0 2026.33   30.16
   4   0   4 1998.33   29.70
   0   4  -4 1983.43   29.87
  -4  -4   0 2035.91   29.91
   1   4  -4  290.83    9.39
   4   4  -1  297.77    9.65
   2  -4   4  132.96    6.12
   4  -4   2  106.78    5.18
   4  -2   4  116.37    5.39
   4   4  -2  118.82    5.73
  -4  -2  -4  114.42    5.13
  -2  -4  -4  125.98    6.08
  -4  -4  -2  110.87    5.02
   3  -4   4   63.37    3.74
   4  -4   3   55.49    3.46
   4  -3   4   51.74    3.28
   4   4  -3   58.70    3.89
  -4  -3  -4   53.87    3.39
   3   4  -4   58.10    3.86
   4  -4   4  831.98   14.87
  -4  -4  -4  882.76   15.76
   0  -5   0    0.88    0.56
   0   5   0    0.49    0.43
   0   0   5    0.10    0.18
  -5   0   0    0.62    0.42
   0   5   1  218.41    8.76
  -1   0   5  206.97    8.32
   1   0   5  240.64    9.29
  -1   0  -5  229.52    8.78
   1   0  -5  195.79    7.77
  -5   1   0  203.92    7.37
   5  -1   0  198.17    7.44
  -5  -1   0  202.46    7.63
   5   1   0  198.71    7.61
   0  -5  -1  192.60    8.11
   0  -5   1  203.14    8.07
   0   5  -1  200.91    7.89
   0   5  -2  399.74   11.13
  -2   0  -5  416.68   11.36
   2   0   5  381.80   11.29
   0  -5  -2  423.32   12.21
   0  -5   2  410.07   11.61
   0   5  -3  110.23    5.34
  -5  -3   0  106.89    5.03
   5   3   0  106.56    5.20
   0  -5   3  111.26    5.38
   5   4   0   26.94    2.44
   0   5  -4   28.25    2.46
   4   0   5   23.91    2.21
  -4   0  -5   24.09    2.17
  -5  -4   0   26.29    2.34
   0  -5   4   26.97    2.45
  -4   1  -5  267.04    7.68
   4   1   5  252.68    7.65
  -1   5  -4  249.95    7.55
  -5  -4   1  276.30    8.15
   5   4   1  267.00    7.86
  -1  -5   4  256.00    7.93
  -3   1  -5  148.33    6.01
  -1   5  -3  146.36    6.08
  -5  -3   1  147.15    6.09
   5   3   1  146.95    6.08
  -1  -5   3  147.32    6.19
   1   5   3  149.92    6.91
   1   5   2 1292.12   23.69
  -1   5  -2 1327.85   22.92
  -2   1  -5 1240.91   22.17
  -5   2  -1 1295.02   22.09
  -5  -2   1 1280.70   21.96
   5   2   1 1293.17   22.17
  -1  -5   2 1232.09   22.57
  -1  -1   5  128.49    6.69
  -1   1  -5  127.75    6.16
   1   5   1  118.56    6.33
  -5   1  -1  113.67    5.41
   1   1   5  121.26    6.35
   5   1   1  117.51    5.78
  -1  -5   1  113.38    5.96
   0   1  -5  343.74   11.04
   0  -1   5  326.79   11.00
   0   1   5  343.10   11.23
   0  -1  -5  344.20   11.34
  -5   0  -1  323.56    9.79
  -5   0   1  340.54    9.70
   1   5   0  326.51   10.71
   5   0   1  321.56   10.10
   5   0  -1  310.32    9.33
  -1  -5   0  317.23   10.54
  -1   5   0  336.28   10.69
   1  -5   0  311.23   10.49
   1   1  -5   94.44    5.50
   1  -1   5   93.40    5.42
  -1  -1  -5   95.91    5.50
   5  -1   1   85.09    4.86
  -5  -1  -1   91.70    4.99
   1   5  -1   93.10    5.31
  -1  -5  -1   92.35    5.51
   2  -1   5 1281.50   22.49
   5  -2   1 1261.67   21.95
  -2  -1  -5 1223.71   22.11
  -1  -5  -2 1238.16   22.87
   1   5  -2 1279.79   22.10
   5   2  -1 1250.68   22.11
   1  -5   2 1266.56   22.80
   1  -5   3  156.71    6.51
   5   3  -1  156.00    6.49
   3  -1   5  153.31    6.25
  -5  -3  -1  150.57    5.96
  -1  -5  -3  161.55    6.97
   1   5  -3  138.70    5.86
   1  -5   4  250.94    7.75
   1   5  -4  252.92    7.65
   5   4  -1  261.08    7.97
   4  -1   5  243.28    7.38
  -4  -1  -5  234.21    7.15
  -5  -4  -1  244.69    7.12
  -4   2  -5 1136.90   18.51
   4   2   5 1177.72   19.56
  -5  -4   2 1200.82   19.54
  -2   5  -4 1143.02   18.81
   5   4   2 1168.40   19.03
  -3   2  -5   54.84    3.39
  -5   3  -2   62.76    3.69
   3   2   5   51.06    3.59
  -2   5  -3   60.90    3.80
  -5  -3   2   53.43    3.62
  -2  -5   3   52.20    3.66
   2   5   2  186.18    7.66
  -5   2  -2  174.89    6.64
  -2   5  -2  170.62    6.92
   2   2   5  193.83    7.83
  -2   2  -5  181.12    6.81
  -1  -2   5  119.40    6.36
  -1   2  -5  107.02    5.53
  -2   5  -1  112.77    5.93
   2   5   1  112.13    6.05
  -5   1  -2  100.14    5.07
   1   2   5  108.53    6.06
   5   1   2  113.43    5.61
  -2  -5   1  106.15    5.62
  -2   5   0 3243.90   44.40
   0  -2   5 3001.43   45.53
   0   2  -5 3159.42   44.97
   2   5   0 3159.85   44.04
  -5   0  -2 3087.50   41.99
   5   0   2 3171.57   42.52
  -2  -5   0 3006.68   43.60
   2  -5   0 3059.10   43.82
   1  -2   5  125.91    6.23
  -1  -2  -5  124.85    6.17
   5  -1   2  115.72    5.61
  -5  -1  -2  122.39    5.65
   2   5  -1  106.00    5.63
   1   2  -5  116.75    6.09
  -2  -5  -1  129.66    6.30
   2  -5   1  126.94    6.29
   2  -5   2  170.66    7.02
   2  -2   5  158.49    6.49
   5  -2   2  159.13    6.48
  -2  -2  -5  177.90    7.13
  -2  -5  -2  177.87    7.35
   2  -5   3   47.79    3.38
   5   3  -2   42.73    3.27
   5  -3   2   42.50    3.06
   3  -2   5   42.65    3.08
  -3  -2  -5   44.35    3.22
  -5  -3  -2   46.16    3.21
   2  -5   4 1179.79   19.35
   5   4  -2 1180.55   19.82
   4  -2   5 1119.01   18.49
  -5  -4  -2 1190.91   19.14
   2   5  -4 1198.73   19.59
  -3  -5   4  253.47    7.61
  -5   3  -3   91.37    4.23
  -3   3  -5   94.69    4.41
   5   3   3  102.79    4.65
  -3  -5   3  108.08    5.02
  -3   5  -3  113.20    5.01
   3   5   3  110.91    5.23
   3   5   2 1587.58   25.62
  -5   2  -3 1668.31   24.86
   2   3   5 1606.41   26.75
   5   2   3 1646.14   24.82
  -3   5  -2 1461.06   24.80
  -2   3  -5 1528.09   24.32
  -2  -3   5 1674.03   26.62
  -1  -3   5  166.58    7.26
   3   5   1  151.38    6.36
  -1   3  -5  180.44    7.10
  -5   1  -3  152.04    6.08
  -3   5  -1  166.53    7.24
   5   1   3  148.92    6.18
  -3  -5   1  154.80    6.49
   0  -3   5   95.96    5.37
   3   5   0   95.38    5.18
  -3  -5   0   94.55    5.13
   0   3  -5   93.82    5.19
   3  -5   1  156.26    6.96
   1  -3   5  175.34    7.33
   3   5  -1  161.84    6.68
   5  -1   3  145.21    6.11
   1   3  -5  163.60    6.93
  -5  -1  -3  143.18    5.86
  -3  -5  -1  150.81    6.26
   3  -5   2 1582.84   25.77
   2   3  -5 1707.92   26.47
   2  -3   5 1550.91   24.69
   5  -2   3 1569.46   24.99
  -2  -3  -5 1683.33   26.79
  -5  -2  -3 1601.86   24.45
  -3  -5  -2 1674.51   25.75
   3  -5   3  110.99    5.09
   3  -3   5  106.11    4.76
   5  -3   3   99.52    4.50
  -5  -3  -3  113.70    4.86
  -3  -5  -3  104.98    4.96
   3   5  -3  114.56    5.14
   3   5  -4  271.23    7.86
  -4  -5   3  117.93    4.96
  -2   4  -5  175.53    6.21
   5   2   4  177.71    6.12
  -4  -5   2  181.17    6.35
   4   5   2  194.89    6.55
  -5   1  -4  133.71    5.32
   5   1   4  142.29    5.63
  -4  -5   1  147.52    5.82
  -1   4  -5  138.22    5.60
   0  -4   5  412.31   10.64
   4   5   0  397.39   10.05
  -5   0  -4  400.76    9.75
   5   0   4  401.53    9.95
   0   4  -5  384.03   10.02
  -4  -5   0  400.78    9.97
   1   4  -5  149.87    6.19
   4   5  -1  158.71    6.25
   5  -1   4  146.27    5.61
  -5  -1  -4  142.13    5.40
  -4  -5  -1  151.30    5.84
   4   5  -2  184.60    6.63
  -5  -2  -4  195.47    6.34
  -4  -5  -2  197.47    6.45
   4   5  -3  124.04    5.13
   0   6   0 1080.83   19.99
   0  -6   0 1005.29   19.48
   1   0   6  966.99   19.35
  -1   0  -6  964.16   18.96
   0   6   1  930.53   19.04
   0   6  -1  976.92   18.27
   0  -6  -1  960.61   19.13
   0  -6   1  994.00   18.71
   2   0   6   58.58    3.97
  -6  -2   0   62.01    3.76
   6   2   0   59.02    3.69
  -3   0  -6  228.68    7.10
   3   0   6  225.54    7.15
  -6  -3   0  246.80    7.32
   6   3   0  249.63    7.47
   0  -6   3  247.10    7.32
   0   6  -3  232.74    6.93
  -1   6  -3  460.83   10.55
  -3   1  -6  476.86   10.39
   3   1   6  469.96   10.89
  -1  -6   3  495.86   10.97
  -2   1  -6  485.64   11.25
   2   1   6  504.62   12.59
   6   2   1  490.63   11.38
  -1  -6   2  492.89   11.52
   1   6   1  371.54   10.70
   6   1   1  360.08    9.84
  -1   6  -1  359.55   10.12
  -6   0  -1  263.42    8.16
   1   6   0  271.93    8.81
   6   0   1  271.57    8.34
  -1  -6   0  265.56    8.59
   1  -6   0  264.97    8.93
  -6  -1  -1  392.57   10.12
   1   6  -1  381.84   10.32
  -1  -6  -1  369.08   10.40
   1  -6   1  407.95   10.85
   2  -1   6  467.52   11.29
  -6  -2  -1  463.12   10.90
   1   6  -2  440.93   10.68
   3  -1   6  445.24   10.13
  -3  -1  -6  478.23   10.75
   1   6  -3  470.69   10.38
   1  -6   3  456.23   10.48
  -2   6  -3    4.50    0.92
   2   6   2  452.64   11.37
  -2   6  -2  481.19   11.37
  -2   2  -6  451.23   10.59
   6   2   2  440.09   10.31
  -6   1  -2   41.00    2.92
  -1   2  -6   40.77    3.14
  -2  -6   1   36.73    2.88
   0   2  -6   69.82    4.49
   0  -2   6   70.05    4.69
  -6   0  -2   56.85    3.44
   6   0   2   62.18    3.79
   1  -2   6   32.43    2.78
   2   6  -1   30.25    2.63
   2  -2   6  464.63   11.06
  -6  -2  -2  456.18   10.21
  -2  -6  -2  492.25   11.68
   2  -6   2  461.74   11.13
   2  -6   3   11.79    1.52
   3   6   2   77.09    4.02
   3   6   1  123.28    5.09
  -6   1  -3  108.52    4.53
   6   1   3  111.68    4.67
  -3  -6   1  121.60    5.04
   0  -3   6  273.06    8.68
   3   6   0  284.31    8.31
  -6   0  -3  271.50    7.55
   6   0   3  256.81    7.65
  -3  -6   0  297.83    8.27
   0   3  -6  265.78    8.42
   3   6  -1   88.80    4.30
  -6  -1  -3   90.16    4.12
  -3  -6  -1   90.30    4.27
   2  -3   6   84.94    4.03
  -3  -6  -2   90.11    4.23
   0   7  -1   74.42    3.92
   1   7   0  120.85    5.05
  -1  -7   0  107.26    4.78
   0   0   0    0.00    0.00

TITL cbf in P2(1)3
REM P2(1)3 (#198 in standard setting)
CELL 0.68894   4.562236   4.562236   4.562236  90.0000  90.0000  90.0000
ZERR    4.00   0.000027   0.000027   0.000027   0.0000   0.0000   0.0000
LATT -1
SYMM -x+1/2,-y, z+1/2
SYMM -x, y+1/2,-z+1/2
SYMM  x+1/2,-y+1/2,-z
SYMM  z, x, y
SYMM  z+1/2,-x+1/2,-y
SYMM -z+1/2,-x, y+1/2
SYMM -z, x+1/2,-y+1/2
SYMM  y, z, x
SYMM -y, z+1/2,-x+1/2
SYMM  y+1/2,-z+1/2,-x
SYMM -y+1/2,-z, x+1/2
SFAC Si Mn
UNIT 4.00 4.00
TREF
HKLF 4
END
_computing_structure_solution     'SHELXT 2014/5 (Sheldrick, 2014)'
;
_shelx_hkl_checksum              34935
loop_
_space_group_symop_operation_xyz
'x, y, z'
'-x+1/2, -y, z+1/2'
'-x, y+1/2, -z+1/2'
'x+1/2, -y+1/2, -z'
'z, x, y'
'z+1/2, -x+1/2, -y'
'-z+1/2, -x, y+1/2'
'-z, x+1/2, -y+1/2'
'y, z, x'
'-y, z+1/2, -x+1/2'
'y+1/2, -z+1/2, -x'
'-y+1/2, -z, x+1/2'
loop_
_atom_site_label
_atom_site_type_symbol
_atom_site_fract_x
_atom_site_fract_y
_atom_site_fract_z
_atom_site_U_iso_or_equiv
_atom_site_adp_type
_atom_site_occupancy
_atom_site_site_symmetry_order
_atom_site_calc_flag
_atom_site_refinement_flags_posn
_atom_site_refinement_flags_adp
_atom_site_refinement_flags_occupancy
Mn01 Mn 0.13683(11) 0.13683(11) 0.13683(11) 0.0169(5) Uani 1 3 d S T P
Si02 Si 0.8453(2) 0.8453(2) 0.8453(2) 0.0182(5) Uani 1 3 d S T P
loop_
_atom_site_aniso_label
_atom_site_aniso_U_11
_atom_site_aniso_U_22
_atom_site_aniso_U_33
_atom_site_aniso_U_23
_atom_site_aniso_U_13
_atom_site_aniso_U_12
Mn01 0.0169(5) 0.0169(5) 0.0169(5) 0.00003(11) 0.00003(11) 0.00003(11)
Si02 0.0182(5) 0.0182(5) 0.0182(5) -0.0007(2) -0.0007(2) -0.0007(2)
loop_
_atom_type_symbol
_atom_type_description
_atom_type_scat_dispersion_real
_atom_type_scat_dispersion_imag
_atom_type_scat_source
Si Si 0.0793 0.0675 'International Tables Vol C Tables 4.2.6.8 and 6.1.1.4'
Mn Mn 0.3321 0.6957 'International Tables Vol C Tables 4.2.6.8 and 6.1.1.4'
loop_
_geom_angle_atom_site_label_1
_geom_angle_atom_site_label_2
_geom_angle_atom_site_label_3
_geom_angle
_geom_angle_site_symmetry_1
_geom_angle_site_symmetry_3
Si02 Mn01 Si02 73.68(2) 1_444 3_645
Si02 Mn01 Si02 73.68(2) 1_444 2_564
Si02 Mn01 Si02 112.431(17) 3_645 2_564
Si02 Mn01 Si02 73.68(2) 1_444 4_456
Si02 Mn01 Si02 112.431(17) 3_645 4_456
Si02 Mn01 Si02 112.431(17) 2_564 4_456
Si02 Mn01 Si02 140.288(13) 1_444 4_466
Si02 Mn01 Si02 69.45(2) 3_645 4_466
Si02 Mn01 Si02 107.34(6) 2_564 4_466
Si02 Mn01 Si02 134.54(5) 4_456 4_466
Si02 Mn01 Si02 140.288(13) 1_444 3_646
Si02 Mn01 Si02 134.54(5) 3_645 3_646
Si02 Mn01 Si02 69.45(2) 2_564 3_646
Si02 Mn01 Si02 107.34(6) 4_456 3_646
Si02 Mn01 Si02 67.19(2) 4_466 3_646
Si02 Mn01 Si02 140.288(13) 1_444 2_664
Si02 Mn01 Si02 107.34(6) 3_645 2_664
Si02 Mn01 Si02 134.54(5) 2_564 2_664
Si02 Mn01 Si02 69.45(2) 4_456 2_664
Si02 Mn01 Si02 67.19(2) 4_466 2_664
Si02 Mn01 Si02 67.19(2) 3_646 2_664
Si02 Mn01 Mn01 115.22(3) 1_444 3
Si02 Mn01 Mn01 91.74(2) 3_645 3
Si02 Mn01 Mn01 54.31(2) 2_564 3
Si02 Mn01 Mn01 155.83(4) 4_456 3
Si02 Mn01 Mn01 53.04(4) 4_466 3
Si02 Mn01 Mn01 50.79(5) 3_646 3
Si02 Mn01 Mn01 104.47(4) 2_664 3
Si02 Mn01 Mn01 115.22(3) 1_444 4
Si02 Mn01 Mn01 54.31(2) 3_645 4
Si02 Mn01 Mn01 155.83(4) 2_564 4
Si02 Mn01 Mn01 91.74(2) 4_456 4
Si02 Mn01 Mn01 50.79(5) 4_466 4
Si02 Mn01 Mn01 104.47(4) 3_646 4
Si02 Mn01 Mn01 53.04(4) 2_664 4
Mn01 Mn01 Mn01 103.16(3) 3 4
Si02 Mn01 Mn01 115.22(3) 1_444 2
Si02 Mn01 Mn01 155.83(4) 3_645 2
Si02 Mn01 Mn01 91.74(2) 2_564 2
Si02 Mn01 Mn01 54.31(2) 4_456 2
Si02 Mn01 Mn01 104.47(4) 4_466 2
Si02 Mn01 Mn01 53.04(4) 3_646 2
Si02 Mn01 Mn01 50.79(5) 2_664 2
Mn01 Mn01 Mn01 103.16(3) 3 2
Mn01 Mn01 Mn01 103.16(3) 4 2
Si02 Mn01 Mn01 58.99(3) 1_444 2_554
Si02 Mn01 Mn01 54.31(2) 3_645 2_554
Si02 Mn01 Mn01 132.62(4) 2_564 2_554
Si02 Mn01 Mn01 58.13(3) 4_456 2_554
Si02 Mn01 Mn01 107.58(4) 4_466 2_554
Si02 Mn01 Mn01 155.59(4) 3_646 2_554
Si02 Mn01 Mn01 88.646(19) 2_664 2_554
Mn01 Mn01 Mn01 146.033(7) 3 2_554
Mn01 Mn01 Mn01 60.0 4 2_554
Mn01 Mn01 Mn01 109.230(4) 2 2_554
Si02 Mn01 Mn01 58.99(3) 1_444 4_455
Si02 Mn01 Mn01 58.13(3) 3_645 4_455
Si02 Mn01 Mn01 54.31(2) 2_564 4_455
Si02 Mn01 Mn01 132.62(4) 4_456 4_455
Si02 Mn01 Mn01 88.646(19) 4_466 4_455
Si02 Mn01 Mn01 107.58(4) 3_646 4_455
Si02 Mn01 Mn01 155.59(4) 2_664 4_455
Mn01 Mn01 Mn01 60.0 3 4_455
Mn01 Mn01 Mn01 109.230(4) 4 4_455
Mn01 Mn01 Mn01 146.033(7) 2 4_455
Mn01 Mn01 Mn01 95.84(3) 2_554 4_455
Mn01 Si02 Mn01 137.64(3) 1_666 3_655
Mn01 Si02 Mn01 137.64(3) 1_666 4_556
Mn01 Si02 Mn01 71.39(5) 3_655 4_556
Mn01 Si02 Mn01 137.64(3) 1_666 2_565
Mn01 Si02 Mn01 71.39(5) 3_655 2_565
Mn01 Si02 Mn01 71.39(5) 4_556 2_565
Mn01 Si02 Mn01 70.22(4) 1_666 4_566
Mn01 Si02 Mn01 114.19(4) 3_655 4_566
Mn01 Si02 Mn01 134.54(5) 4_556 4_566
Mn01 Si02 Mn01 68.826(14) 2_565 4_566
Mn01 Si02 Mn01 70.22(4) 1_666 3_656
Mn01 Si02 Mn01 134.54(5) 3_655 3_656
Mn01 Si02 Mn01 68.826(14) 4_556 3_656
Mn01 Si02 Mn01 114.19(4) 2_565 3_656
Mn01 Si02 Mn01 109.17(4) 4_566 3_656
Mn01 Si02 Mn01 70.22(4) 1_666 2_665
Mn01 Si02 Mn01 68.826(14) 3_655 2_665
Mn01 Si02 Mn01 114.19(4) 4_556 2_665
Mn01 Si02 Mn01 134.54(5) 2_565 2_665
Mn01 Si02 Mn01 109.17(4) 4_566 2_665
Mn01 Si02 Mn01 109.17(4) 3_656 2_665
Mn01 Si02 Si02 54.69(5) 1_666 3_756
Mn01 Si02 Si02 91.202(14) 3_655 3_756
Mn01 Si02 Si02 162.01(4) 4_556 3_756
Mn01 Si02 Si02 108.02(5) 2_565 3_756
Mn01 Si02 Si02 56.405(10) 4_566 3_756
Mn01 Si02 Si02 124.87(9) 3_656 3_756
Mn01 Si02 Si02 52.76(4) 2_665 3_756
Mn01 Si02 Si02 54.69(5) 1_666 2_675
Mn01 Si02 Si02 162.01(4) 3_655 2_675
Mn01 Si02 Si02 108.02(5) 4_556 2_675
Mn01 Si02 Si02 91.202(14) 2_565 2_675
Mn01 Si02 Si02 52.76(4) 4_566 2_675
Mn01 Si02 Si02 56.405(10) 3_656 2_675
Mn01 Si02 Si02 124.87(9) 2_665 2_675
Si02 Si02 Si02 89.93(8) 3_756 2_675
Mn01 Si02 Si02 54.69(5) 1_666 4_567
Mn01 Si02 Si02 108.02(5) 3_655 4_567
Mn01 Si02 Si02 91.202(14) 4_556 4_567
Mn01 Si02 Si02 162.01(4) 2_565 4_567
Mn01 Si02 Si02 124.87(9) 4_566 4_567
Mn01 Si02 Si02 52.76(4) 3_656 4_567
Mn01 Si02 Si02 56.405(10) 2_665 4_567
Si02 Si02 Si02 89.93(8) 3_756 4_567
Si02 Si02 Si02 89.93(8) 2_675 4_567
Mn01 Si02 Si02 110.85(6) 1_666 3_746
Mn01 Si02 Si02 51.63(5) 3_655 3_746
Mn01 Si02 Si02 57.79(3) 4_556 3_746
Mn01 Si02 Si02 111.37(9) 2_565 3_746
Mn01 Si02 Si02 161.21(3) 4_566 3_746
Mn01 Si02 Si02 88.16(3) 3_656 3_746
Mn01 Si02 Si02 56.405(10) 2_665 3_746
Si02 Si02 Si02 107.98(2) 3_756 3_746
Si02 Si02 Si02 143.97(4) 2_675 3_746
Si02 Si02 Si02 60.0 4_567 3_746
Mn01 Si02 Si02 110.85(6) 1_666 2_674
Mn01 Si02 Si02 57.79(3) 3_655 2_674
Mn01 Si02 Si02 111.37(9) 4_556 2_674
Mn01 Si02 Si02 51.63(5) 2_565 2_674
Mn01 Si02 Si02 56.405(10) 4_566 2_674
Mn01 Si02 Si02 161.21(3) 3_656 2_674
Mn01 Si02 Si02 88.16(3) 2_665 2_674
Si02 Si02 Si02 60.0 3_756 2_674
Si02 Si02 Si02 107.98(2) 2_675 2_674
Si02 Si02 Si02 143.97(4) 4_567 2_674
Si02 Si02 Si02 108.05(6) 3_746 2_674
loop_
_geom_bond_atom_site_label_1
_geom_bond_atom_site_label_2
_geom_bond_distance
_geom_bond_site_symmetry_2
Mn01 Si02 2.304(2) 1_444
Mn01 Si02 2.3977(13) 3_645
Mn01 Si02 2.3977(13) 2_564
Mn01 Si02 2.3977(13) 4_456
Mn01 Si02 2.5482(9) 4_466
Mn01 Si02 2.5482(9) 3_646
Mn01 Si02 2.5482(9) 2_664
Mn01 Mn01 2.7980(2) 3
Mn01 Mn01 2.7980(2) 4
Mn01 Mn01 2.7980(2) 2
Mn01 Mn01 2.79796(19) 2_554
Mn01 Mn01 2.7980(2) 4_455
Si02 Mn01 2.304(2) 1_666
Si02 Mn01 2.3977(13) 3_655
Si02 Mn01 2.3977(13) 4_556
Si02 Mn01 2.3977(13) 2_565
Si02 Mn01 2.5482(9) 4_566
Si02 Mn01 2.5482(9) 3_656
Si02 Mn01 2.5482(9) 2_665
Si02 Si02 2.8200(4) 3_756
Si02 Si02 2.8200(4) 2_675
Si02 Si02 2.8200(4) 4_567
Si02 Si02 2.8200(4) 3_746
Si02 Si02 2.8200(4) 2_674
