#------------------------------------------------------------------------------
#$Date: 2016-02-13 21:28:24 +0200 (Sat, 13 Feb 2016) $
#$Revision: 176429 $
#$URL: svn://www.crystallography.net/cod/cif/1/53/76/1537607.cif $
#------------------------------------------------------------------------------
#
# This file is available in the Crystallography Open Database (COD),
# http://www.crystallography.net/
#
# All data on this site have been placed in the public domain by the
# contributors.
#
data_1537607
loop_
_publ_author_name
'Abdul Noor, S.S.'
_publ_section_title
;
 Magnetic phase transitions in Mn0.5 Te0.5-x Sbx
;
_journal_name_full               'Journal of Applied Physics'
_journal_page_first              3549
_journal_page_last               3551
_journal_volume                  61
_journal_year                    1987
_chemical_formula_sum            'Mn Te'
_chemical_name_systematic        'Mn Te'
_space_group_IT_number           194
_symmetry_space_group_name_Hall  '-P 6c 2c'
_symmetry_space_group_name_H-M   'P 63/m m c'
_cell_angle_alpha                90
_cell_angle_beta                 90
_cell_angle_gamma                120
_cell_formula_units_Z            2
_cell_length_a                   4.1497
_cell_length_b                   4.1497
_cell_length_c                   6.76
_cell_volume                     100.812
_citation_journal_id_ASTM        JAPIAU
_cod_data_source_file            AbdulNoor_JAPIAU_1987_672.cif
_cod_data_source_block           Mn1Te1
_cod_original_cell_volume        100.8117
_cod_original_formula_sum        'Mn1 Te1'
_cod_database_code               1537607
loop_
_symmetry_equiv_pos_as_xyz
x,y,z
x-y,x,z+1/2
-y,x-y,z
-x,-y,z+1/2
-x+y,-x,z
y,-x+y,z+1/2
-y,-x,-z+1/2
x-y,-y,-z
x,x-y,-z+1/2
y,x,-z
-x+y,y,-z+1/2
-x,-x+y,-z
-x,-y,-z
-x+y,-x,-z-1/2
y,-x+y,-z
x,y,-z-1/2
x-y,x,-z
-y,x-y,-z-1/2
y,x,z-1/2
-x+y,y,z
-x,-x+y,z-1/2
-y,-x,z
x-y,-y,z-1/2
x,x-y,z
loop_
_atom_site_label
_atom_site_type_symbol
_atom_site_fract_x
_atom_site_fract_y
_atom_site_fract_z
_atom_site_occupancy
_atom_site_U_iso_or_equiv
Mn1 Mn+2 0 0 0 1 0.0
Te1 Te-2 0.3333 0.6667 0.25 1 0.0
