#------------------------------------------------------------------------------
#$Date: 2016-02-13 21:28:24 +0200 (Sat, 13 Feb 2016) $
#$Revision: 176429 $
#$URL: svn://www.crystallography.net/cod/cif/1/53/78/1537841.cif $
#------------------------------------------------------------------------------
#
# This file is available in the Crystallography Open Database (COD),
# http://www.crystallography.net/
#
# All data on this site have been placed in the public domain by the
# contributors.
#
data_1537841
loop_
_publ_author_name
'Dwight, A.E.'
_publ_section_title
;
 Alloying behavior of columbium
;
_journal_name_full
'Metallurgical Society Conferences, Proceedings'
_journal_page_first              383
_journal_page_last               405
_journal_volume                  10
_journal_year                    1961
_chemical_formula_sum            'Ir Nb'
_chemical_name_systematic        'Ir Nb'
_space_group_IT_number           123
_symmetry_space_group_name_Hall  '-P 4 2'
_symmetry_space_group_name_H-M   'P 4/m m m'
_cell_angle_alpha                90
_cell_angle_beta                 90
_cell_angle_gamma                90
_cell_formula_units_Z            2
_cell_length_a                   4.027
_cell_length_b                   4.027
_cell_length_c                   3.859
_cell_volume                     62.580
_citation_journal_id_ASTM        MSCOA6
_cod_data_source_file            Dwight_MSCOA6_1961_330.cif
_cod_data_source_block           Ir1Nb1
_cod_original_cell_volume        62.58036
_cod_original_formula_sum        'Ir1 Nb1'
_cod_database_code               1537841
loop_
_symmetry_equiv_pos_as_xyz
x,y,z
-y,x,z
-x,-y,z
y,-x,z
x,-y,-z
y,x,-z
-x,y,-z
-y,-x,-z
-x,-y,-z
y,-x,-z
x,y,-z
-y,x,-z
-x,y,z
-y,-x,z
x,-y,z
y,x,z
loop_
_atom_site_label
_atom_site_type_symbol
_atom_site_fract_x
_atom_site_fract_y
_atom_site_fract_z
_atom_site_occupancy
_atom_site_U_iso_or_equiv
Nb1 Nb 0 0.5 0.5 1 0.0
Ir2 Ir 0.5 0.5 0 1 0.0
Ir1 Ir 0 0 0 1 0.0
