#------------------------------------------------------------------------------
#$Date: 2016-02-13 21:28:24 +0200 (Sat, 13 Feb 2016) $
#$Revision: 176429 $
#$URL: svn://www.crystallography.net/cod/cif/1/53/77/1537724.cif $
#------------------------------------------------------------------------------
#
# This file is available in the Crystallography Open Database (COD),
# http://www.crystallography.net/
#
# All data on this site have been placed in the public domain by the
# contributors.
#
data_1537724
loop_
_publ_author_name
'Chuang, Y.C.'
'Wu, C.H.'
'Chang, Y.C.'
_publ_section_title
;
 Structure and magnetic properties of Y(Co1-x Mx)5 compounds
;
_journal_name_full               'Journal of the Less-Common Metals'
_journal_page_first              201
_journal_page_last               213
_journal_volume                  84
_journal_year                    1982
_chemical_formula_sum            'Ni5 Y'
_chemical_name_systematic        'Ni5 Y'
_space_group_IT_number           191
_symmetry_space_group_name_Hall  '-P 6 2'
_symmetry_space_group_name_H-M   'P 6/m m m'
_cell_angle_alpha                90
_cell_angle_beta                 90
_cell_angle_gamma                120
_cell_formula_units_Z            1
_cell_length_a                   4.867
_cell_length_b                   4.867
_cell_length_c                   3.973
_cell_volume                     81.503
_citation_journal_id_ASTM        JCOMAH
_cod_data_source_file            Chuang_JCOMAH_1982_1125.cif
_cod_data_source_block           Ni5Y1
_cod_original_cell_volume        81.50269
_cod_original_formula_sum        'Ni5 Y1'
_cod_database_code               1537724
loop_
_symmetry_equiv_pos_as_xyz
x,y,z
x-y,x,z
-y,x-y,z
-x,-y,z
-x+y,-x,z
y,-x+y,z
-y,-x,-z
x-y,-y,-z
x,x-y,-z
y,x,-z
-x+y,y,-z
-x,-x+y,-z
-x,-y,-z
-x+y,-x,-z
y,-x+y,-z
x,y,-z
x-y,x,-z
-y,x-y,-z
y,x,z
-x+y,y,z
-x,-x+y,z
-y,-x,z
x-y,-y,z
x,x-y,z
loop_
_atom_site_label
_atom_site_type_symbol
_atom_site_fract_x
_atom_site_fract_y
_atom_site_fract_z
_atom_site_occupancy
_atom_site_U_iso_or_equiv
Ni1 Ni 0.3333 0.6667 0 1 0.0
Ni2 Ni 0.5 0 0.5 1 0.0
Y1 Y 0 0 0 1 0.0
