#------------------------------------------------------------------------------
#$Date: 2016-02-13 21:28:24 +0200 (Sat, 13 Feb 2016) $
#$Revision: 176429 $
#$URL: svn://www.crystallography.net/cod/cif/1/53/73/1537309.cif $
#------------------------------------------------------------------------------
#
# This file is available in the Crystallography Open Database (COD),
# http://www.crystallography.net/
#
# All data on this site have been placed in the public domain by the
# contributors.
#
data_1537309
loop_
_publ_author_name
'Fischmeister, H.F.'
_publ_section_title
;
 Roentgenkristallographische Ausdehnungsmessungen an einigen
 Alkalisulfaten
;
_journal_name_full               'Monatshefte fuer Chemie (-108,1977)'
_journal_page_first              420
_journal_page_last               434
_journal_volume                  93
_journal_year                    1962
_chemical_formula_sum            'Cs2 S'
_chemical_name_systematic        'Cs2 (S O4)'
_space_group_IT_number           194
_symmetry_space_group_name_Hall  '-P 6c 2c'
_symmetry_space_group_name_H-M   'P 63/m m c'
_cell_angle_alpha                90
_cell_angle_beta                 90
_cell_angle_gamma                120
_cell_formula_units_Z            2
_cell_length_a                   6.41
_cell_length_b                   6.41
_cell_length_c                   8.84
_cell_volume                     314.557
_citation_journal_id_ASTM        MOCHAP
_cod_data_source_file            Fischmeister_MOCHAP_1962_1900.cif
_cod_data_source_block           Cs2S1
_cod_original_cell_volume        314.5567
_cod_original_formula_sum        'Cs2 S1'
_cod_database_code               1537309
loop_
_symmetry_equiv_pos_as_xyz
x,y,z
x-y,x,z+1/2
-y,x-y,z
-x,-y,z+1/2
-x+y,-x,z
y,-x+y,z+1/2
-y,-x,-z+1/2
x-y,-y,-z
x,x-y,-z+1/2
y,x,-z
-x+y,y,-z+1/2
-x,-x+y,-z
-x,-y,-z
-x+y,-x,-z-1/2
y,-x+y,-z
x,y,-z-1/2
x-y,x,-z
-y,x-y,-z-1/2
y,x,z-1/2
-x+y,y,z
-x,-x+y,z-1/2
-y,-x,z
x-y,-y,z-1/2
x,x-y,z
loop_
_atom_site_label
_atom_site_type_symbol
_atom_site_fract_x
_atom_site_fract_y
_atom_site_fract_z
_atom_site_occupancy
_atom_site_U_iso_or_equiv
Cs1 Cs+1 0 0 0 1 0.0
S1 S+6 0.3333 0.6667 0.25 1 0.0
Cs2 Cs+1 0.6667 0.3333 0.25 1 0.0
