#------------------------------------------------------------------------------
#$Date: 2016-02-13 21:28:24 +0200 (Sat, 13 Feb 2016) $
#$Revision: 176429 $
#$URL: svn://www.crystallography.net/cod/cif/1/53/79/1537924.cif $
#------------------------------------------------------------------------------
#
# This file is available in the Crystallography Open Database (COD),
# http://www.crystallography.net/
#
# All data on this site have been placed in the public domain by the
# contributors.
#
data_1537924
loop_
_publ_author_name
'Bruzzone, G.'
'Merlo, F.'
_publ_section_title
;
 The equilibrium phase diagram of the calcium-lead system and crystal
 structures of the compounds CaPb, EuPb and YbPb
;
_journal_name_full               'Journal of the Less-Common Metals'
_journal_page_first              103
_journal_page_last               109
_journal_volume                  48
_journal_year                    1976
_chemical_formula_sum            'Pb Yb'
_chemical_name_systematic        'Pb Yb'
_space_group_IT_number           123
_symmetry_space_group_name_Hall  '-P 4 2'
_symmetry_space_group_name_H-M   'P 4/m m m'
_cell_angle_alpha                90
_cell_angle_beta                 90
_cell_angle_gamma                90
_cell_formula_units_Z            2
_cell_length_a                   5.085
_cell_length_b                   5.085
_cell_length_c                   4.443
_cell_volume                     114.884
_citation_journal_id_ASTM        JCOMAH
_cod_data_source_file            Bruzzone_JCOMAH_1976_1381.cif
_cod_data_source_block           Pb1Yb1
_cod_original_cell_volume        114.8837
_cod_original_formula_sum        'Pb1 Yb1'
_cod_database_code               1537924
loop_
_symmetry_equiv_pos_as_xyz
x,y,z
-y,x,z
-x,-y,z
y,-x,z
x,-y,-z
y,x,-z
-x,y,-z
-y,-x,-z
-x,-y,-z
y,-x,-z
x,y,-z
-y,x,-z
-x,y,z
-y,-x,z
x,-y,z
y,x,z
loop_
_atom_site_label
_atom_site_type_symbol
_atom_site_fract_x
_atom_site_fract_y
_atom_site_fract_z
_atom_site_occupancy
_atom_site_U_iso_or_equiv
Pb1 Pb 0 0 0 1 0.0
Pb2 Pb 0.5 0.5 0 1 0.0
Yb1 Yb 0 0.5 0.5 1 0.0
