#------------------------------------------------------------------------------
#$Date: 2016-02-13 21:28:24 +0200 (Sat, 13 Feb 2016) $
#$Revision: 176429 $
#$URL: svn://www.crystallography.net/cod/cif/1/53/76/1537637.cif $
#------------------------------------------------------------------------------
#
# This file is available in the Crystallography Open Database (COD),
# http://www.crystallography.net/
#
# All data on this site have been placed in the public domain by the
# contributors.
#
data_1537637
loop_
_publ_author_name
'Alekseyevskiy, N.Ye.'
'Balakhovskii, O.A.'
'Kirillov, I.V.'
_publ_section_title
;
 Concerning the superconductivity of technetium and some of its alloys
;
_journal_name_full               'Physics of Metals and Metallography'
_journal_page_first              38
_journal_page_last               42
_journal_volume                  40
_journal_year                    1975
_chemical_formula_sum            'Ru Tc'
_chemical_name_systematic        'Ru Tc'
_space_group_IT_number           194
_symmetry_space_group_name_Hall  '-P 6c 2c'
_symmetry_space_group_name_H-M   'P 63/m m c'
_cell_angle_alpha                90
_cell_angle_beta                 90
_cell_angle_gamma                120
_cell_formula_units_Z            1
_cell_length_a                   2.733
_cell_length_b                   2.733
_cell_length_c                   4.34
_cell_volume                     28.074
_citation_journal_id_ASTM        PHMMA6
_cod_data_source_file            Alekseyevskiy_PHMMA6_1975_1706.cif
_cod_data_source_block           Ru1Tc1
_cod_original_cell_volume        28.0737
_cod_original_formula_sum        'Ru1 Tc1'
_cod_database_code               1537637
loop_
_symmetry_equiv_pos_as_xyz
x,y,z
x-y,x,z+1/2
-y,x-y,z
-x,-y,z+1/2
-x+y,-x,z
y,-x+y,z+1/2
-y,-x,-z+1/2
x-y,-y,-z
x,x-y,-z+1/2
y,x,-z
-x+y,y,-z+1/2
-x,-x+y,-z
-x,-y,-z
-x+y,-x,-z-1/2
y,-x+y,-z
x,y,-z-1/2
x-y,x,-z
-y,x-y,-z-1/2
y,x,z-1/2
-x+y,y,z
-x,-x+y,z-1/2
-y,-x,z
x-y,-y,z-1/2
x,x-y,z
loop_
_atom_site_label
_atom_site_type_symbol
_atom_site_fract_x
_atom_site_fract_y
_atom_site_fract_z
_atom_site_occupancy
_atom_site_U_iso_or_equiv
Tc1 Tc 0.3333 0.6667 0.25 0.5 0.0
Ru1 Ru 0.3333 0.6667 0.25 0.5 0.0
