#------------------------------------------------------------------------------
#$Date: 2016-02-13 21:28:24 +0200 (Sat, 13 Feb 2016) $
#$Revision: 176429 $
#$URL: svn://www.crystallography.net/cod/cif/1/53/77/1537750.cif $
#------------------------------------------------------------------------------
#
# This file is available in the Crystallography Open Database (COD),
# http://www.crystallography.net/
#
# All data on this site have been placed in the public domain by the
# contributors.
#
data_1537750
loop_
_publ_author_name
'Coffinberry, A.S.'
'Ellinger, F.H.'
_publ_section_title
;
 The intermetallic compounds of plutonium
;
_journal_name_full
;
International Conference on Peaceful Uses of Atomic Energy, Geneva 1958: 
Proceedings
;
_journal_page_first              826
_journal_page_last               826
_journal_volume                  8
_journal_year                    1955
_chemical_formula_sum            'In3 Pu'
_chemical_name_systematic        'In3 Pu'
_space_group_IT_number           221
_symmetry_space_group_name_Hall  '-P 4 2 3'
_symmetry_space_group_name_H-M   'P m -3 m'
_cell_angle_alpha                90
_cell_angle_beta                 90
_cell_angle_gamma                90
_cell_formula_units_Z            1
_cell_length_a                   4.703
_cell_length_b                   4.703
_cell_length_c                   4.703
_cell_volume                     104.022
_citation_journal_id_ASTM        PICPA6
_cod_data_source_file            Coffinberry_PICPA6_1955_270.cif
_cod_data_source_block           In3Pu1
_cod_original_cell_volume        104.0219
_cod_original_formula_sum        'In3 Pu1'
_cod_database_code               1537750
loop_
_symmetry_equiv_pos_as_xyz
x,y,z
-y,x,z
-x,-y,z
y,-x,z
x,-y,-z
y,x,-z
-x,y,-z
-y,-x,-z
z,x,y
-x,z,y
-z,-x,y
x,-z,y
z,-x,-y
x,z,-y
-z,x,-y
-x,-z,-y
y,z,x
y,-z,-x
z,y,-x
-y,z,-x
-z,-y,-x
-y,-z,x
z,-y,x
-z,y,x
-x,-y,-z
y,-x,-z
x,y,-z
-y,x,-z
-x,y,z
-y,-x,z
x,-y,z
y,x,z
-z,-x,-y
x,-z,-y
z,x,-y
-x,z,-y
-z,x,y
-x,-z,y
z,-x,y
x,z,y
-y,-z,-x
-y,z,x
-z,-y,x
y,-z,x
z,y,x
y,z,-x
-z,y,-x
z,-y,-x
loop_
_atom_site_label
_atom_site_type_symbol
_atom_site_fract_x
_atom_site_fract_y
_atom_site_fract_z
_atom_site_occupancy
_atom_site_U_iso_or_equiv
In1 In 0 0.5 0.5 1 0.0
Pu1 Pu 0 0 0 1 0.0
