#------------------------------------------------------------------------------
#$Date: 2015-10-12 19:55:41 +0300 (Mon, 12 Oct 2015) $
#$Revision: 166373 $
#$URL: svn://www.crystallography.net/cod/cif/1/53/79/1537979.cif $
#------------------------------------------------------------------------------
#
# This file is available in the Crystallography Open Database (COD),
# http://www.crystallography.net/
#
# All data on this site have been placed in the public domain by the
# contributors.
#
data_1537979
loop_
_publ_author_name
'Buschow, K.H.J.'
'Fast, J.F.'
_publ_section_title
;
 Crystal structure and magnetic properties of some rare earth germanides
;
_journal_name_full               'Physica Status Solidi'
_journal_page_first              593
_journal_page_last               600
_journal_volume                  21
_journal_year                    1967
_chemical_formula_sum            'Ge3 Tb5'
_chemical_name_systematic        'Tb5 Ge3'
_space_group_IT_number           193
_symmetry_space_group_name_Hall  '-P 6c 2'
_symmetry_space_group_name_H-M   'P 63/m c m'
_cell_angle_alpha                90
_cell_angle_beta                 90
_cell_angle_gamma                120
_cell_formula_units_Z            2
_cell_length_a                   8.495
_cell_length_b                   8.495
_cell_length_c                   6.351
_cell_volume                     396.917
_citation_journal_id_ASTM        PHSSAK
_cod_data_source_file            Buschow_PHSSAK_1967_53.cif
_cod_data_source_block           Ge3Tb5
_cod_original_cell_volume        396.9168
_cod_database_code               1537979
loop_
_symmetry_equiv_pos_as_xyz
x,y,z
x-y,x,z+1/2
-y,x-y,z
-x,-y,z+1/2
-x+y,-x,z
y,-x+y,z+1/2
-y,-x,-z
x-y,-y,-z+1/2
x,x-y,-z
y,x,-z+1/2
-x+y,y,-z
-x,-x+y,-z+1/2
-x,-y,-z
-x+y,-x,-z-1/2
y,-x+y,-z
x,y,-z-1/2
x-y,x,-z
-y,x-y,-z-1/2
y,x,z
-x+y,y,z-1/2
-x,-x+y,z
-y,-x,z-1/2
x-y,-y,z
x,x-y,z-1/2
loop_
_atom_site_label
_atom_site_type_symbol
_atom_site_fract_x
_atom_site_fract_y
_atom_site_fract_z
_atom_site_occupancy
_atom_site_U_iso_or_equiv
Tb1 Tb 0.3333 0.6667 0 1 0.0
Ge1 Ge 0.61 0 0.25 1 0.0
Tb2 Tb 0.25 0 0.25 1 0.0
