#------------------------------------------------------------------------------
#$Date: 2015-10-11 16:03:47 +0300 (Sun, 11 Oct 2015) $
#$Revision: 165691 $
#$URL: svn://www.crystallography.net/cod/cif/1/53/74/1537491.cif $
#------------------------------------------------------------------------------
#
# This file is available in the Crystallography Open Database (COD),
# http://www.crystallography.net/
#
# All data on this site have been placed in the public domain by the
# contributors.
#
data_1537491
loop_
_publ_author_name
'Juza, R.'
'Kroebel, R.'
_publ_section_title
;
 Ueber eine Hochtemperaturmodifikation des Magnesiumarsenids und eine
 ternaere Phase Mg2 Mn As2 gleicher Struktur
;
_journal_name_full
'Zeitschrift fuer Anorganische und Allgemeine Chemie'
_journal_page_first              187
_journal_page_last               199
_journal_volume                  331
_journal_year                    1964
_chemical_formula_sum            'As2 Mg3'
_chemical_name_systematic        'Mg3 As2'
_space_group_IT_number           164
_symmetry_space_group_name_Hall  '-P 3 2"'
_symmetry_space_group_name_H-M   'P -3 m 1'
_cell_angle_alpha                90
_cell_angle_beta                 90
_cell_angle_gamma                120
_cell_formula_units_Z            1
_cell_length_a                   4.264
_cell_length_b                   4.264
_cell_length_c                   6.738
_cell_volume                     106.095
_citation_journal_id_ASTM        ZAACAB
_cod_data_source_file            Juza_ZAACAB_1964_766.cif
_cod_data_source_block           As2Mg3
_cod_original_cell_volume        106.0953
_cod_database_code               1537491
loop_
_symmetry_equiv_pos_as_xyz
x,y,z
-y,x-y,z
-x+y,-x,z
y,x,-z
-x,-x+y,-z
x-y,-y,-z
-x,-y,-z
y,-x+y,-z
x-y,x,-z
-y,-x,z
x,x-y,z
-x+y,y,z
loop_
_atom_site_label
_atom_site_type_symbol
_atom_site_fract_x
_atom_site_fract_y
_atom_site_fract_z
_atom_site_occupancy
_atom_site_U_iso_or_equiv
Mg1 Mg+2 0 0 0 1 0.0
As1 As-3 0.3333 0.6666 0.235 1 0.0
Mg2 Mg+2 0.3333 0.6666 0.635 1 0.0
