#------------------------------------------------------------------------------
#$Date: 2015-10-10 08:35:40 +0300 (Sat, 10 Oct 2015) $
#$Revision: 165210 $
#$URL: svn://www.crystallography.net/cod/cif/1/53/71/1537187.cif $
#------------------------------------------------------------------------------
#
# This file is available in the Crystallography Open Database (COD),
# http://www.crystallography.net/
#
# All data on this site have been placed in the public domain by the
# contributors.
#
data_1537187
loop_
_publ_author_name
'Zuercher, F.'
'Nesper, R.'
_publ_section_title
;
 Ba4 Ge4: Polymerization of Zintl anions in the solid and bond stretching
 isomerism
;
_journal_name_full               'Angew. Chem. Int. ed.'
_journal_page_first              3314
_journal_page_last               3318
_journal_volume                  37
_journal_year                    1998
_chemical_formula_sum            'Ba3 Ge4'
_chemical_name_systematic        'Ba3 Ge4'
_space_group_IT_number           136
_symmetry_space_group_name_Hall  '-P 4n 2n'
_symmetry_space_group_name_H-M   'P 42/m n m'
_cell_angle_alpha                90
_cell_angle_beta                 90
_cell_angle_gamma                90
_cell_formula_units_Z            4
_cell_length_a                   8.621
_cell_length_b                   8.621
_cell_length_c                   12.031
_cell_volume                     894.164
_citation_journal_id_ASTM        ACIEF5
_cod_data_source_file            Zuercher_ACIEF5_1998_750.cif
_cod_data_source_block           Ba3Ge4
_cod_original_cell_volume        894.1638
_cod_database_code               1537187
loop_
_symmetry_equiv_pos_as_xyz
x,y,z
-y+1/2,x+1/2,z+1/2
-x,-y,z
y+1/2,-x+1/2,z+1/2
x+1/2,-y+1/2,-z+1/2
y,x,-z
-x+1/2,y+1/2,-z+1/2
-y,-x,-z
-x,-y,-z
y-1/2,-x-1/2,-z-1/2
x,y,-z
-y-1/2,x-1/2,-z-1/2
-x-1/2,y-1/2,z-1/2
-y,-x,z
x-1/2,-y-1/2,z-1/2
y,x,z
loop_
_atom_site_label
_atom_site_type_symbol
_atom_site_fract_x
_atom_site_fract_y
_atom_site_fract_z
_atom_site_occupancy
_atom_site_U_iso_or_equiv
Ba2 Ba 0 0 0.32999 1 0.0
Ge1 Ge 0.4148 0.1924 0 1 0.0
Ba1 Ba 0.8351 0.1649 0 1 0.0
Ge2 Ge 0.2 0.2 0.1473 1 0.0
Ba3 Ba 0 0.5 0.25 1 0.0
