#------------------------------------------------------------------------------
#$Date: 2016-02-13 14:50:18 +0200 (Sat, 13 Feb 2016) $
#$Revision: 176428 $
#$URL: svn://www.crystallography.net/cod/cif/1/53/75/1537570.cif $
#------------------------------------------------------------------------------
#
# This file is available in the Crystallography Open Database (COD),
# http://www.crystallography.net/
#
# All data on this site have been placed in the public domain by the
# contributors.
#
data_1537570
loop_
_publ_author_name
'Lambert-Andron, B.'
'Berodias, G.'
_publ_section_title
;
 Etude par diffraction neutronique de Fe3 Se4
;
_journal_name_full               'Solid State Communications'
_journal_page_first              623
_journal_page_last               629
_journal_volume                  7
_journal_year                    1969
_chemical_formula_sum            'Fe3 Se4'
_chemical_name_systematic        'Fe3 Se4'
_space_group_IT_number           12
_symmetry_space_group_name_Hall  '-C 2y (x,y,-x+z)'
_symmetry_space_group_name_H-M   'C 1 2/m 1 (a+c,b,c)'
_cell_angle_alpha                90
_cell_angle_beta                 91.73
_cell_angle_gamma                90
_cell_formula_units_Z            2
_cell_length_a                   6.2
_cell_length_b                   3.53
_cell_length_c                   11.26
_cell_volume                     246.324
_citation_journal_id_ASTM        SSCOA4
_cod_data_source_file            Lambert-Andron_SSCOA4_1969_110.cif
_cod_data_source_block           Fe3Se4
_cod_original_sg_symbol_H-M      'I 1 2/m 1'
_cod_database_code               1537570
loop_
_symmetry_equiv_pos_as_xyz
x,y,z
-x,y,-z
-x,-y,-z
x,-y,z
x+1/2,y+1/2,z+1/2
-x+1/2,y+1/2,-z+1/2
-x+1/2,-y+1/2,-z+1/2
x+1/2,-y+1/2,z+1/2
loop_
_atom_site_label
_atom_site_type_symbol
_atom_site_fract_x
_atom_site_fract_y
_atom_site_fract_z
_atom_site_occupancy
_atom_site_U_iso_or_equiv
Fe1 Fe+3 0 0 0.5 1 0.0
Se2 Se-2 0.367 0 0.86 1 0.0
Fe3 Fe+2 0.045 0 0.241 0.5 0.0
Se1 Se-2 0.347 0 0.384 1 0.0
Fe2 Fe+3 0.045 0 0.241 0.5 0.0
