#------------------------------------------------------------------------------
#$Date: 2015-10-12 19:56:11 +0300 (Mon, 12 Oct 2015) $
#$Revision: 166375 $
#$URL: svn://www.crystallography.net/cod/cif/1/53/79/1537981.cif $
#------------------------------------------------------------------------------
#
# This file is available in the Crystallography Open Database (COD),
# http://www.crystallography.net/
#
# All data on this site have been placed in the public domain by the
# contributors.
#
data_1537981
loop_
_publ_author_name
'Busk, R.S.'
_publ_section_title
;
 Lattice parameters of magnesium alloys
;
_journal_name_full
;
Transactions of the American Institute of Mining, Metallurgical and Petroleum 
Engineers
;
_journal_page_first              1460
_journal_page_last               1464
_journal_volume                  188
_journal_year                    1950
_chemical_formula_sum            'Mg1.914 Pb0.086'
_chemical_name_systematic        '(Mg24 Pb)0.08'
_space_group_IT_number           194
_symmetry_space_group_name_Hall  '-P 6c 2c'
_symmetry_space_group_name_H-M   'P 63/m m c'
_cell_angle_alpha                90
_cell_angle_beta                 90
_cell_angle_gamma                120
_cell_formula_units_Z            1
_cell_length_a                   3.2142
_cell_length_b                   3.2142
_cell_length_c                   5.2345
_cell_volume                     46.833
_citation_journal_id_ASTM        TAIMAF
_cod_data_source_file            Busk_TAIMAF_1950_555.cif
_cod_data_source_block           Mg1.914Pb0.086
_cod_original_cell_volume        46.83296
_cod_database_code               1537981
loop_
_symmetry_equiv_pos_as_xyz
x,y,z
x-y,x,z+1/2
-y,x-y,z
-x,-y,z+1/2
-x+y,-x,z
y,-x+y,z+1/2
-y,-x,-z+1/2
x-y,-y,-z
x,x-y,-z+1/2
y,x,-z
-x+y,y,-z+1/2
-x,-x+y,-z
-x,-y,-z
-x+y,-x,-z-1/2
y,-x+y,-z
x,y,-z-1/2
x-y,x,-z
-y,x-y,-z-1/2
y,x,z-1/2
-x+y,y,z
-x,-x+y,z-1/2
-y,-x,z
x-y,-y,z-1/2
x,x-y,z
loop_
_atom_site_label
_atom_site_type_symbol
_atom_site_fract_x
_atom_site_fract_y
_atom_site_fract_z
_atom_site_occupancy
_atom_site_U_iso_or_equiv
Pb1 Pb 0.3333 0.6667 0.25 0.043 0.0
Mg1 Mg 0.3333 0.6667 0.25 0.957 0.0
