#------------------------------------------------------------------------------
#$Date: 2016-02-13 21:28:24 +0200 (Sat, 13 Feb 2016) $
#$Revision: 176429 $
#$URL: svn://www.crystallography.net/cod/cif/1/53/79/1537937.cif $
#------------------------------------------------------------------------------
#
# This file is available in the Crystallography Open Database (COD),
# http://www.crystallography.net/
#
# All data on this site have been placed in the public domain by the
# contributors.
#
data_1537937
loop_
_publ_author_name
'Erdmann, B.'
'Keller, C.'
_publ_section_title
;
 Actinide(lanthanide)-noble metal alloy phases, preparation and properties
;
_journal_name_full               'Journal of Solid State Chemistry'
_journal_page_first              40
_journal_page_last               48
_journal_volume                  7
_journal_year                    1973
_chemical_formula_sum            'Pt3 Y'
_chemical_name_systematic        'Pt3 Y'
_space_group_IT_number           221
_symmetry_space_group_name_Hall  '-P 4 2 3'
_symmetry_space_group_name_H-M   'P m -3 m'
_cell_angle_alpha                90
_cell_angle_beta                 90
_cell_angle_gamma                90
_cell_formula_units_Z            1
_cell_length_a                   4.069
_cell_length_b                   4.069
_cell_length_c                   4.069
_cell_volume                     67.369
_citation_journal_id_ASTM        JSSCBI
_cod_data_source_file            Erdmann_JSSCBI_1973_1558.cif
_cod_data_source_block           Pt3Y1
_cod_original_cell_volume        67.36945
_cod_original_formula_sum        'Pt3 Y1'
_cod_database_code               1537937
loop_
_symmetry_equiv_pos_as_xyz
x,y,z
-y,x,z
-x,-y,z
y,-x,z
x,-y,-z
y,x,-z
-x,y,-z
-y,-x,-z
z,x,y
-x,z,y
-z,-x,y
x,-z,y
z,-x,-y
x,z,-y
-z,x,-y
-x,-z,-y
y,z,x
y,-z,-x
z,y,-x
-y,z,-x
-z,-y,-x
-y,-z,x
z,-y,x
-z,y,x
-x,-y,-z
y,-x,-z
x,y,-z
-y,x,-z
-x,y,z
-y,-x,z
x,-y,z
y,x,z
-z,-x,-y
x,-z,-y
z,x,-y
-x,z,-y
-z,x,y
-x,-z,y
z,-x,y
x,z,y
-y,-z,-x
-y,z,x
-z,-y,x
y,-z,x
z,y,x
y,z,-x
-z,y,-x
z,-y,-x
loop_
_atom_site_label
_atom_site_type_symbol
_atom_site_fract_x
_atom_site_fract_y
_atom_site_fract_z
_atom_site_occupancy
_atom_site_U_iso_or_equiv
Pt1 Pt 0 0.5 0.5 1 0.0
Y1 Y 0 0 0 1 0.0
