#------------------------------------------------------------------------------
#$Date: 2016-02-13 21:28:24 +0200 (Sat, 13 Feb 2016) $
#$Revision: 176429 $
#$URL: svn://www.crystallography.net/cod/cif/1/53/71/1537192.cif $
#------------------------------------------------------------------------------
#
# This file is available in the Crystallography Open Database (COD),
# http://www.crystallography.net/
#
# All data on this site have been placed in the public domain by the
# contributors.
#
data_1537192
loop_
_publ_author_name
'Rowe, J.M.'
'Rush, J.J.'
'Susman, S.'
_publ_section_title
;
 Neutron powder diffraction study of ohase transitions and structures of
 (K C N)x (K Br)1-x nixed crystals
;
_journal_name_full
'Physical Review, Serie 3. B - Condensed Matter (18,1978-)'
_journal_page_first              3506
_journal_page_last               3511
_journal_volume                  28
_journal_year                    1983
_chemical_formula_sum            'C K'
_chemical_name_systematic        'K (C N)'
_space_group_IT_number           9
_symmetry_space_group_name_Hall  'C -2yc'
_symmetry_space_group_name_H-M   'C 1 c 1'
_cell_angle_alpha                90
_cell_angle_beta                 130.4
_cell_angle_gamma                90
_cell_formula_units_Z            4
_cell_length_a                   8.02
_cell_length_b                   4.21
_cell_length_c                   10.4
_cell_volume                     267.412
_citation_journal_id_ASTM        PRBMDO
_cod_data_source_file            Rowe_PRBMDO_1983_695.cif
_cod_data_source_block           C1K1
_cod_original_cell_volume        267.4124
_cod_original_formula_sum        'C1 K1'
_cod_database_code               1537192
loop_
_symmetry_equiv_pos_as_xyz
x,y,z
x,-y,z+1/2
x+1/2,y+1/2,z
x+1/2,-y+1/2,z+1/2
loop_
_atom_site_label
_atom_site_type_symbol
_atom_site_fract_x
_atom_site_fract_y
_atom_site_fract_z
_atom_site_occupancy
_atom_site_U_iso_or_equiv
C1 C+2 0.5 0 0.25 1 0.0
K1 K+1 0 0 0 1 0.0
