#------------------------------------------------------------------------------
#$Date: 2016-02-13 21:28:24 +0200 (Sat, 13 Feb 2016) $
#$Revision: 176429 $
#$URL: svn://www.crystallography.net/cod/cif/1/53/72/1537270.cif $
#------------------------------------------------------------------------------
#
# This file is available in the Crystallography Open Database (COD),
# http://www.crystallography.net/
#
# All data on this site have been placed in the public domain by the
# contributors.
#
data_1537270
loop_
_publ_author_name
'von Schnering, H.G.'
'Peters, K.'
'Freiberg, M.'
'Chang Jenhui'
'Ormeci, A.'
'Roehr, C.'
'Peters, E.M.'
'Thiele, G.'
'Schroeder, L.'
_publ_section_title
;
 Structure and bonding of the mixed-valent platinum trihalides, Pt Cl3 and
 Pt Br3
;
_journal_name_full
'Zeitschrift fuer Anorganische und Allgemeine Chemie'
_journal_page_first              109
_journal_page_last               116
_journal_volume                  630
_journal_year                    2004
_chemical_formula_sum            'Br3 Pt'
_chemical_name_systematic        'Pt Br3'
_space_group_IT_number           148
_symmetry_space_group_name_Hall  '-R 3'
_symmetry_space_group_name_H-M   'R -3 :H'
_cell_angle_alpha                90
_cell_angle_beta                 90
_cell_angle_gamma                120
_cell_formula_units_Z            36
_cell_length_a                   22.318
_cell_length_b                   22.318
_cell_length_c                   9.034
_cell_volume                     3896.918
_citation_journal_id_ASTM        ZAACAB
_cod_data_source_file            vonSchnering_ZAACAB_2004_1216.cif
_cod_data_source_block           Br3Pt1
_cod_original_formula_sum        'Br3 Pt1'
_cod_database_code               1537270
loop_
_symmetry_equiv_pos_as_xyz
x,y,z
-y,x-y,z
-x+y,-x,z
-x,-y,-z
y,-x+y,-z
x-y,x,-z
x+2/3,y+1/3,z+1/3
-y+2/3,x-y+1/3,z+1/3
-x+y+2/3,-x+1/3,z+1/3
-x+2/3,-y+1/3,-z+1/3
y+2/3,-x+y+1/3,-z+1/3
x-y+2/3,x+1/3,-z+1/3
x+1/3,y+2/3,z+2/3
-y+1/3,x-y+2/3,z+2/3
-x+y+1/3,-x+2/3,z+2/3
-x+1/3,-y+2/3,-z+2/3
y+1/3,-x+y+2/3,-z+2/3
x-y+1/3,x+2/3,-z+2/3
loop_
_atom_site_label
_atom_site_type_symbol
_atom_site_fract_x
_atom_site_fract_y
_atom_site_fract_z
_atom_site_occupancy
_atom_site_U_iso_or_equiv
Br4 Br-1 0.031 0.3943 0.6743 1 0.0
Pt1 Pt+2 0.00705 0.09351 0.1582 1 0.0
Br5 Br-1 0.1173 0.2978 0.6569 1 0.0
Br6 Br-1 0.0201 0.2035 0.3579 1 0.0
Pt2 Pt+4 0.02723 0.29961 0.5076 1 0.0
Br2 Br-1 0.0927 0.0858 0.3129 1 0.0
Br1 Br-1 0.0992 0.1783 -0.0009 1 0.0
Br3 Br-1 0.1166 0.3855 0.3419 1 0.0
