#------------------------------------------------------------------------------
#$Date: 2016-02-13 21:28:24 +0200 (Sat, 13 Feb 2016) $
#$Revision: 176429 $
#$URL: svn://www.crystallography.net/cod/cif/1/53/79/1537945.cif $
#------------------------------------------------------------------------------
#
# This file is available in the Crystallography Open Database (COD),
# http://www.crystallography.net/
#
# All data on this site have been placed in the public domain by the
# contributors.
#
data_1537945
loop_
_publ_author_name
'Eremenko, V.N.'
'Shtepa, T.D.'
'Semenova, E.L.'
_publ_section_title
;
 Ti-Os phase diagram
;
_journal_name_full               'Russian Metallurgy'
_journal_page_first              147
_journal_page_last               149
_journal_volume                  1971
_journal_year                    1971
_chemical_formula_sum            'Os Ti'
_chemical_name_systematic        'Os Ti'
_space_group_IT_number           221
_symmetry_space_group_name_Hall  '-P 4 2 3'
_symmetry_space_group_name_H-M   'P m -3 m'
_cell_angle_alpha                90
_cell_angle_beta                 90
_cell_angle_gamma                90
_cell_formula_units_Z            1
_cell_length_a                   3.08
_cell_length_b                   3.08
_cell_length_c                   3.08
_cell_volume                     29.218
_citation_journal_id_ASTM        RMLYAQ
_cod_data_source_file            Eremenko_RMLYAQ_1971_1245.cif
_cod_data_source_block           Os1Ti1
_cod_original_cell_volume        29.21811
_cod_original_formula_sum        'Os1 Ti1'
_cod_database_code               1537945
loop_
_symmetry_equiv_pos_as_xyz
x,y,z
-y,x,z
-x,-y,z
y,-x,z
x,-y,-z
y,x,-z
-x,y,-z
-y,-x,-z
z,x,y
-x,z,y
-z,-x,y
x,-z,y
z,-x,-y
x,z,-y
-z,x,-y
-x,-z,-y
y,z,x
y,-z,-x
z,y,-x
-y,z,-x
-z,-y,-x
-y,-z,x
z,-y,x
-z,y,x
-x,-y,-z
y,-x,-z
x,y,-z
-y,x,-z
-x,y,z
-y,-x,z
x,-y,z
y,x,z
-z,-x,-y
x,-z,-y
z,x,-y
-x,z,-y
-z,x,y
-x,-z,y
z,-x,y
x,z,y
-y,-z,-x
-y,z,x
-z,-y,x
y,-z,x
z,y,x
y,z,-x
-z,y,-x
z,-y,-x
loop_
_atom_site_label
_atom_site_type_symbol
_atom_site_fract_x
_atom_site_fract_y
_atom_site_fract_z
_atom_site_occupancy
_atom_site_U_iso_or_equiv
Os1 Os 0 0 0 1 0.0
Ti1 Ti 0.5 0.5 0.5 1 0.0
