#------------------------------------------------------------------------------
#$Date: 2015-10-12 18:13:28 +0300 (Mon, 12 Oct 2015) $
#$Revision: 166001 $
#$URL: svn://www.crystallography.net/cod/cif/1/53/76/1537692.cif $
#------------------------------------------------------------------------------
#
# This file is available in the Crystallography Open Database (COD),
# http://www.crystallography.net/
#
# All data on this site have been placed in the public domain by the
# contributors.
#
data_1537692
loop_
_publ_author_name
'Chen, B.'
'Franzen, H.F.'
_publ_section_title
;
 Phase transitions in Ir Ti1+x
;
_journal_name_full               'Journal of the Less-Common Metals'
_journal_page_first              L11
_journal_page_last               L16
_journal_volume                  158
_journal_year                    1990
_chemical_formula_sum            'Ir0.7 Ti1.3'
_chemical_name_systematic        '(Ir7 Ti13)0.1'
_space_group_IT_number           221
_symmetry_space_group_name_Hall  '-P 4 2 3'
_symmetry_space_group_name_H-M   'P m -3 m'
_cell_angle_alpha                90
_cell_angle_beta                 90
_cell_angle_gamma                90
_cell_formula_units_Z            1
_cell_length_a                   3.1149
_cell_length_b                   3.1149
_cell_length_c                   3.1149
_cell_volume                     30.223
_citation_journal_id_ASTM        JCOMAH
_cod_data_source_file            Chen_JCOMAH_1990_357.cif
_cod_data_source_block           Ir0.7Ti1.3
_cod_original_cell_volume        30.22264
_cod_database_code               1537692
loop_
_symmetry_equiv_pos_as_xyz
x,y,z
-y,x,z
-x,-y,z
y,-x,z
x,-y,-z
y,x,-z
-x,y,-z
-y,-x,-z
z,x,y
-x,z,y
-z,-x,y
x,-z,y
z,-x,-y
x,z,-y
-z,x,-y
-x,-z,-y
y,z,x
y,-z,-x
z,y,-x
-y,z,-x
-z,-y,-x
-y,-z,x
z,-y,x
-z,y,x
-x,-y,-z
y,-x,-z
x,y,-z
-y,x,-z
-x,y,z
-y,-x,z
x,-y,z
y,x,z
-z,-x,-y
x,-z,-y
z,x,-y
-x,z,-y
-z,x,y
-x,-z,y
z,-x,y
x,z,y
-y,-z,-x
-y,z,x
-z,-y,x
y,-z,x
z,y,x
y,z,-x
-z,y,-x
z,-y,-x
loop_
_atom_site_label
_atom_site_type_symbol
_atom_site_fract_x
_atom_site_fract_y
_atom_site_fract_z
_atom_site_occupancy
_atom_site_U_iso_or_equiv
Ti1 Ti 0 0 0 0.3 0.0
Ti2 Ti 0.5 0.5 0.5 1 0.0
Ir1 Ir 0 0 0 0.7 0.0
