#------------------------------------------------------------------------------
#$Date: 2016-02-13 21:28:24 +0200 (Sat, 13 Feb 2016) $
#$Revision: 176429 $
#$URL: svn://www.crystallography.net/cod/cif/1/53/79/1537958.cif $
#------------------------------------------------------------------------------
#
# This file is available in the Crystallography Open Database (COD),
# http://www.crystallography.net/
#
# All data on this site have been placed in the public domain by the
# contributors.
#
data_1537958
loop_
_publ_author_name
'Buschow, K.H.J.'
_publ_section_title
;
 Note on the structure and occurrence of ytterbium transition metal
 compounds
;
_journal_name_full               'Journal of the Less-Common Metals'
_journal_page_first              329
_journal_page_last               333
_journal_volume                  26
_journal_year                    1972
_chemical_formula_sum            'Ni5 Yb'
_chemical_name_systematic        'Ni5 Yb'
_space_group_IT_number           191
_symmetry_space_group_name_Hall  '-P 6 2'
_symmetry_space_group_name_H-M   'P 6/m m m'
_cell_angle_alpha                90
_cell_angle_beta                 90
_cell_angle_gamma                120
_cell_formula_units_Z            1
_cell_length_a                   4.847
_cell_length_b                   4.847
_cell_length_c                   3.962
_cell_volume                     80.610
_citation_journal_id_ASTM        JCOMAH
_cod_data_source_file            Buschow_JCOMAH_1972_1138.cif
_cod_data_source_block           Ni5Yb1
_cod_original_cell_volume        80.61041
_cod_original_formula_sum        'Ni5 Yb1'
_cod_database_code               1537958
loop_
_symmetry_equiv_pos_as_xyz
x,y,z
x-y,x,z
-y,x-y,z
-x,-y,z
-x+y,-x,z
y,-x+y,z
-y,-x,-z
x-y,-y,-z
x,x-y,-z
y,x,-z
-x+y,y,-z
-x,-x+y,-z
-x,-y,-z
-x+y,-x,-z
y,-x+y,-z
x,y,-z
x-y,x,-z
-y,x-y,-z
y,x,z
-x+y,y,z
-x,-x+y,z
-y,-x,z
x-y,-y,z
x,x-y,z
loop_
_atom_site_label
_atom_site_type_symbol
_atom_site_fract_x
_atom_site_fract_y
_atom_site_fract_z
_atom_site_occupancy
_atom_site_U_iso_or_equiv
Ni2 Ni 0.5 0 0.5 1 0.0
Yb1 Yb 0 0 0 1 0.0
Ni1 Ni 0.3333 0.6667 0 1 0.0
