#------------------------------------------------------------------------------
#$Date: 2015-10-12 19:39:57 +0300 (Mon, 12 Oct 2015) $
#$Revision: 166318 $
#$URL: svn://www.crystallography.net/cod/cif/1/53/79/1537928.cif $
#------------------------------------------------------------------------------
#
# This file is available in the Crystallography Open Database (COD),
# http://www.crystallography.net/
#
# All data on this site have been placed in the public domain by the
# contributors.
#
data_1537928
loop_
_publ_author_name
'Bucher, E.'
'Cooper, A.S.'
'Jaccard, D.'
'Sierro, J.'
_publ_section_title
;
 Intermediate valence properties of a series of Ln4X3 compounds with
 anti-Th3P4 structure
;
_journal_name_full
;
Valence Instab. Relat. Narrow-Band Phenom., Proc. Int. Conf.
;
_journal_page_first              529
_journal_page_last               531
_journal_volume                  1977
_journal_year                    1977
_chemical_formula_sum            'La4 Sb3'
_chemical_name_systematic        'La4 Sb3'
_space_group_IT_number           220
_symmetry_space_group_name_Hall  'I -4bd 2c 3'
_symmetry_space_group_name_H-M   'I -4 3 d'
_cell_angle_alpha                90
_cell_angle_beta                 90
_cell_angle_gamma                90
_cell_formula_units_Z            4
_cell_length_a                   9.63
_cell_length_b                   9.63
_cell_length_c                   9.63
_cell_volume                     893.056
_citation_journal_id_ASTM        38NEA6
_cod_data_source_file            Bucher_38NEA6_1977_458.cif
_cod_data_source_block           La4Sb3
_cod_original_cell_volume        893.0564
_cod_database_code               1537928
loop_
_symmetry_equiv_pos_as_xyz
x,y,z
y+1/4,-x+3/4,-z+1/4
-x,-y+1/2,z
-y+3/4,x+3/4,-z+1/4
x,-y,-z+1/2
-y+1/4,-x+3/4,z+3/4
-x,y+1/2,-z+1/2
y+3/4,x+3/4,z+3/4
z,x,y
x+1/4,-z+3/4,-y+1/4
-z,-x+1/2,y
-x+3/4,z+3/4,-y+1/4
z,-x,-y+1/2
-x+1/4,-z+3/4,y+3/4
-z,x+1/2,-y+1/2
x+3/4,z+3/4,y+3/4
y,z,x
y,-z,-x+1/2
-z+1/4,-y+3/4,x+3/4
-y,z+1/2,-x+1/2
z+1/4,y+1/4,x+1/4
-y+1/2,-z,x+1/2
-z+1/4,y+1/4,-x+3/4
z+3/4,-y+1/4,-x+3/4
x+1/2,y+1/2,z+1/2
y+3/4,-x+5/4,-z+3/4
-x+1/2,-y+1,z+1/2
-y+5/4,x+5/4,-z+3/4
x+1/2,-y+1/2,-z+1
-y+3/4,-x+5/4,z+5/4
-x+1/2,y+1,-z+1
y+5/4,x+5/4,z+5/4
z+1/2,x+1/2,y+1/2
x+3/4,-z+5/4,-y+3/4
-z+1/2,-x+1,y+1/2
-x+5/4,z+5/4,-y+3/4
z+1/2,-x+1/2,-y+1
-x+3/4,-z+5/4,y+5/4
-z+1/2,x+1,-y+1
x+5/4,z+5/4,y+5/4
y+1/2,z+1/2,x+1/2
y+1/2,-z+1/2,-x+1
-z+3/4,-y+5/4,x+5/4
-y+1/2,z+1,-x+1
z+3/4,y+3/4,x+3/4
-y+1,-z+1/2,x+1
-z+3/4,y+3/4,-x+5/4
z+5/4,-y+3/4,-x+5/4
loop_
_atom_site_label
_atom_site_type_symbol
_atom_site_fract_x
_atom_site_fract_y
_atom_site_fract_z
_atom_site_occupancy
_atom_site_U_iso_or_equiv
Sb1 Sb 0.375 0 0.25 1 0.0
La1 La 0.071 0.071 0.071 1 0.0
