#------------------------------------------------------------------------------
#$Date: 2015-10-10 07:30:18 +0300 (Sat, 10 Oct 2015) $
#$Revision: 164954 $
#$URL: svn://www.crystallography.net/cod/cif/1/53/70/1537009.cif $
#------------------------------------------------------------------------------
#
# This file is available in the Crystallography Open Database (COD),
# http://www.crystallography.net/
#
# All data on this site have been placed in the public domain by the
# contributors.
#
data_1537009
loop_
_publ_author_name
'Zav'yalova, A.A.'
'Imamov, R.M.'
_publ_section_title
;
 Special features of the crystal structure of bismuth oxides
;
_journal_name_full
'Zhurnal Strukturnoi Khimii (Issue-No. from 1981)'
_journal_page_first              869
_journal_page_last               873
_journal_volume                  13
_journal_year                    1972
_chemical_formula_sum            'Bi2 O3'
_chemical_name_systematic        'Bi2 O3'
_space_group_IT_number           224
_symmetry_space_group_name_Hall  '-P 4bc 2bc 3'
_symmetry_space_group_name_H-M   'P n -3 m :2'
_cell_angle_alpha                90
_cell_angle_beta                 90
_cell_angle_gamma                90
_cell_formula_units_Z            2
_cell_length_a                   5.45
_cell_length_b                   5.45
_cell_length_c                   5.45
_cell_volume                     161.879
_citation_journal_id_ASTM        ZSTKAI
_cod_data_source_file            Zavyalova_ZSTKAI_1972_366.cif
_cod_data_source_block           Bi2O3
_cod_original_cell_volume        161.8786
_cod_database_code               1537009
loop_
_symmetry_equiv_pos_as_xyz
x,y,z
-y,x+1/2,z+1/2
-x+1/2,-y+1/2,z
y+1/2,-x,z+1/2
x,-y+1/2,-z+1/2
y+1/2,x+1/2,-z
-x+1/2,y,-z+1/2
-y,-x,-z
z,x,y
-x,z+1/2,y+1/2
-z+1/2,-x+1/2,y
x+1/2,-z,y+1/2
z,-x+1/2,-y+1/2
x+1/2,z+1/2,-y
-z+1/2,x,-y+1/2
-x,-z,-y
y,z,x
y,-z+1/2,-x+1/2
z+1/2,y+1/2,-x
-y+1/2,z,-x+1/2
-z,-y,-x
-y+1/2,-z+1/2,x
z+1/2,-y,x+1/2
-z,y+1/2,x+1/2
-x,-y,-z
y,-x-1/2,-z-1/2
x-1/2,y-1/2,-z
-y-1/2,x,-z-1/2
-x,y-1/2,z-1/2
-y-1/2,-x-1/2,z
x-1/2,-y,z-1/2
y,x,z
-z,-x,-y
x,-z-1/2,-y-1/2
z-1/2,x-1/2,-y
-x-1/2,z,-y-1/2
-z,x-1/2,y-1/2
-x-1/2,-z-1/2,y
z-1/2,-x,y-1/2
x,z,y
-y,-z,-x
-y,z-1/2,x-1/2
-z-1/2,-y-1/2,x
y-1/2,-z,x-1/2
z,y,x
y-1/2,z-1/2,-x
-z-1/2,y,-x-1/2
z,-y-1/2,-x-1/2
loop_
_atom_site_label
_atom_site_type_symbol
_atom_site_fract_x
_atom_site_fract_y
_atom_site_fract_z
_atom_site_occupancy
_atom_site_U_iso_or_equiv
Bi1 Bi+3 0.5 0.5 0.5 1 0.0
O1 O-2 0.25 0.75 0.75 1 0.0
