#------------------------------------------------------------------------------
#$Date: 2016-02-13 21:28:24 +0200 (Sat, 13 Feb 2016) $
#$Revision: 176429 $
#$URL: svn://www.crystallography.net/cod/cif/1/53/78/1537862.cif $
#------------------------------------------------------------------------------
#
# This file is available in the Crystallography Open Database (COD),
# http://www.crystallography.net/
#
# All data on this site have been placed in the public domain by the
# contributors.
#
data_1537862
loop_
_publ_author_name
'Ehrlich, P.'
_publ_section_title
;
 Struktur und Aufbau der Titanselenide und -telluride
;
_journal_name_full               'Angewandte Chemie (German Edition)'
_journal_page_first              68
_journal_page_last               69
_journal_volume                  60
_journal_year                    1948
_chemical_formula_sum            'Se Ti'
_chemical_name_systematic        'Ti Se'
_space_group_IT_number           194
_symmetry_space_group_name_Hall  '-P 6c 2c'
_symmetry_space_group_name_H-M   'P 63/m m c'
_cell_angle_alpha                90
_cell_angle_beta                 90
_cell_angle_gamma                120
_cell_formula_units_Z            2
_cell_length_a                   3.566
_cell_length_b                   3.566
_cell_length_c                   6.233
_cell_volume                     68.642
_citation_journal_id_ASTM        ANCEAD
_cod_data_source_file            Ehrlich_ANCEAD_1948_1936.cif
_cod_data_source_block           Se1Ti1
_cod_original_cell_volume        68.64207
_cod_original_formula_sum        'Se1 Ti1'
_cod_database_code               1537862
loop_
_symmetry_equiv_pos_as_xyz
x,y,z
x-y,x,z+1/2
-y,x-y,z
-x,-y,z+1/2
-x+y,-x,z
y,-x+y,z+1/2
-y,-x,-z+1/2
x-y,-y,-z
x,x-y,-z+1/2
y,x,-z
-x+y,y,-z+1/2
-x,-x+y,-z
-x,-y,-z
-x+y,-x,-z-1/2
y,-x+y,-z
x,y,-z-1/2
x-y,x,-z
-y,x-y,-z-1/2
y,x,z-1/2
-x+y,y,z
-x,-x+y,z-1/2
-y,-x,z
x-y,-y,z-1/2
x,x-y,z
loop_
_atom_site_label
_atom_site_type_symbol
_atom_site_fract_x
_atom_site_fract_y
_atom_site_fract_z
_atom_site_occupancy
_atom_site_U_iso_or_equiv
Ti1 Ti 0 0 0 1 0.0
Se1 Se 0.3333 0.6667 0.25 1 0.0
