#------------------------------------------------------------------------------
#$Date: 2016-02-13 21:28:24 +0200 (Sat, 13 Feb 2016) $
#$Revision: 176429 $
#$URL: svn://www.crystallography.net/cod/cif/1/53/76/1537652.cif $
#------------------------------------------------------------------------------
#
# This file is available in the Crystallography Open Database (COD),
# http://www.crystallography.net/
#
# All data on this site have been placed in the public domain by the
# contributors.
#
data_1537652
loop_
_publ_author_name
'Anderson, E.'
_publ_section_title
;
 The equilibrium diagram of the system molybdenum-palladium
;
_journal_name_full               'Journal of the Less-Common Metals'
_journal_page_first              81
_journal_page_last               84
_journal_volume                  6
_journal_year                    1964
_chemical_formula_sum            'Mo Pd'
_chemical_name_systematic        'Mo Pd'
_space_group_IT_number           194
_symmetry_space_group_name_Hall  '-P 6c 2c'
_symmetry_space_group_name_H-M   'P 63/m m c'
_cell_angle_alpha                90
_cell_angle_beta                 90
_cell_angle_gamma                120
_cell_formula_units_Z            1
_cell_length_a                   2.777
_cell_length_b                   2.777
_cell_length_c                   4.49
_cell_volume                     29.987
_citation_journal_id_ASTM        JCOMAH
_cod_data_source_file            Anderson_JCOMAH_1964_706.cif
_cod_data_source_block           Mo1Pd1
_cod_original_cell_volume        29.9867
_cod_original_formula_sum        'Mo1 Pd1'
_cod_database_code               1537652
loop_
_symmetry_equiv_pos_as_xyz
x,y,z
x-y,x,z+1/2
-y,x-y,z
-x,-y,z+1/2
-x+y,-x,z
y,-x+y,z+1/2
-y,-x,-z+1/2
x-y,-y,-z
x,x-y,-z+1/2
y,x,-z
-x+y,y,-z+1/2
-x,-x+y,-z
-x,-y,-z
-x+y,-x,-z-1/2
y,-x+y,-z
x,y,-z-1/2
x-y,x,-z
-y,x-y,-z-1/2
y,x,z-1/2
-x+y,y,z
-x,-x+y,z-1/2
-y,-x,z
x-y,-y,z-1/2
x,x-y,z
loop_
_atom_site_label
_atom_site_type_symbol
_atom_site_fract_x
_atom_site_fract_y
_atom_site_fract_z
_atom_site_occupancy
_atom_site_U_iso_or_equiv
Mo1 Mo 0.3333 0.6667 0.25 0.485 0.0
Pd1 Pd 0.3333 0.6667 0.25 0.515 0.0
