#------------------------------------------------------------------------------
#$Date: 2016-02-13 21:28:24 +0200 (Sat, 13 Feb 2016) $
#$Revision: 176429 $
#$URL: svn://www.crystallography.net/cod/cif/1/53/79/1537943.cif $
#------------------------------------------------------------------------------
#
# This file is available in the Crystallography Open Database (COD),
# http://www.crystallography.net/
#
# All data on this site have been placed in the public domain by the
# contributors.
#
data_1537943
loop_
_publ_author_name
'Eremenko, V.N.'
'Shtepa, T.D.'
_publ_section_title
;
 Phase diagram of the Ti-Ir system
;
_journal_name_full               'Russian Metallurgy'
_journal_page_first              127
_journal_page_last               130
_journal_volume                  1970
_journal_year                    1970
_chemical_formula_sum            'Ir Ti3'
_chemical_name_systematic        'Ir Ti3'
_space_group_IT_number           223
_symmetry_space_group_name_Hall  '-P 4n 2 3'
_symmetry_space_group_name_H-M   'P m -3 n'
_cell_angle_alpha                90
_cell_angle_beta                 90
_cell_angle_gamma                90
_cell_formula_units_Z            2
_cell_length_a                   5.002
_cell_length_b                   5.002
_cell_length_c                   5.002
_cell_volume                     125.150
_citation_journal_id_ASTM        RMLYAQ
_cod_data_source_file            Eremenko_RMLYAQ_1970_359.cif
_cod_data_source_block           Ir1Ti3
_cod_original_cell_volume        125.15
_cod_original_formula_sum        'Ir1 Ti3'
_cod_database_code               1537943
loop_
_symmetry_equiv_pos_as_xyz
x,y,z
-y+1/2,x+1/2,z+1/2
-x,-y,z
y+1/2,-x+1/2,z+1/2
x,-y,-z
y+1/2,x+1/2,-z+1/2
-x,y,-z
-y+1/2,-x+1/2,-z+1/2
z,x,y
-x+1/2,z+1/2,y+1/2
-z,-x,y
x+1/2,-z+1/2,y+1/2
z,-x,-y
x+1/2,z+1/2,-y+1/2
-z,x,-y
-x+1/2,-z+1/2,-y+1/2
y,z,x
y,-z,-x
z+1/2,y+1/2,-x+1/2
-y,z,-x
-z+1/2,-y+1/2,-x+1/2
-y,-z,x
z+1/2,-y+1/2,x+1/2
-z+1/2,y+1/2,x+1/2
-x,-y,-z
y-1/2,-x-1/2,-z-1/2
x,y,-z
-y-1/2,x-1/2,-z-1/2
-x,y,z
-y-1/2,-x-1/2,z-1/2
x,-y,z
y-1/2,x-1/2,z-1/2
-z,-x,-y
x-1/2,-z-1/2,-y-1/2
z,x,-y
-x-1/2,z-1/2,-y-1/2
-z,x,y
-x-1/2,-z-1/2,y-1/2
z,-x,y
x-1/2,z-1/2,y-1/2
-y,-z,-x
-y,z,x
-z-1/2,-y-1/2,x-1/2
y,-z,x
z-1/2,y-1/2,x-1/2
y,z,-x
-z-1/2,y-1/2,-x-1/2
z-1/2,-y-1/2,-x-1/2
loop_
_atom_site_label
_atom_site_type_symbol
_atom_site_fract_x
_atom_site_fract_y
_atom_site_fract_z
_atom_site_occupancy
_atom_site_U_iso_or_equiv
Ir1 Ir 0 0 0 1 0.0
Ti1 Ti 0.25 0 0.5 1 0.0
