#------------------------------------------------------------------------------
#$Date: 2015-10-12 19:12:53 +0300 (Mon, 12 Oct 2015) $
#$Revision: 166209 $
#$URL: svn://www.crystallography.net/cod/cif/1/53/78/1537847.cif $
#------------------------------------------------------------------------------
#
# This file is available in the Crystallography Open Database (COD),
# http://www.crystallography.net/
#
# All data on this site have been placed in the public domain by the
# contributors.
#
data_1537847
loop_
_publ_author_name
'Efendiev, G.Kh.'
'Karaev, Z.Sh.'
'Nasibov, I.O.'
_publ_section_title
;
 About the interaction of selenides A(III)2 B(VI)3 of samarium and gallium
;
_journal_name_full               'Azerbaidzhanskii Khimicheskii Zhurnal'
_journal_page_first              125
_journal_page_last               131
_journal_volume                  1964
_journal_year                    1964
_chemical_formula_sum            'Se4 Sm2.667'
_chemical_name_systematic        'Sm2.667 Se4'
_space_group_IT_number           220
_symmetry_space_group_name_Hall  'I -4bd 2c 3'
_symmetry_space_group_name_H-M   'I -4 3 d'
_cell_angle_alpha                90
_cell_angle_beta                 90
_cell_angle_gamma                90
_cell_formula_units_Z            4
_cell_length_a                   8.75
_cell_length_b                   8.75
_cell_length_c                   8.75
_cell_volume                     669.922
_citation_journal_id_ASTM        AZKZAU
_cod_data_source_file            Efendiev_AZKZAU_1964_1901.cif
_cod_data_source_block           Se4Sm2.667
_cod_original_cell_volume        669.9219
_cod_database_code               1537847
loop_
_symmetry_equiv_pos_as_xyz
x,y,z
y+1/4,-x+3/4,-z+1/4
-x,-y+1/2,z
-y+3/4,x+3/4,-z+1/4
x,-y,-z+1/2
-y+1/4,-x+3/4,z+3/4
-x,y+1/2,-z+1/2
y+3/4,x+3/4,z+3/4
z,x,y
x+1/4,-z+3/4,-y+1/4
-z,-x+1/2,y
-x+3/4,z+3/4,-y+1/4
z,-x,-y+1/2
-x+1/4,-z+3/4,y+3/4
-z,x+1/2,-y+1/2
x+3/4,z+3/4,y+3/4
y,z,x
y,-z,-x+1/2
-z+1/4,-y+3/4,x+3/4
-y,z+1/2,-x+1/2
z+1/4,y+1/4,x+1/4
-y+1/2,-z,x+1/2
-z+1/4,y+1/4,-x+3/4
z+3/4,-y+1/4,-x+3/4
x+1/2,y+1/2,z+1/2
y+3/4,-x+5/4,-z+3/4
-x+1/2,-y+1,z+1/2
-y+5/4,x+5/4,-z+3/4
x+1/2,-y+1/2,-z+1
-y+3/4,-x+5/4,z+5/4
-x+1/2,y+1,-z+1
y+5/4,x+5/4,z+5/4
z+1/2,x+1/2,y+1/2
x+3/4,-z+5/4,-y+3/4
-z+1/2,-x+1,y+1/2
-x+5/4,z+5/4,-y+3/4
z+1/2,-x+1/2,-y+1
-x+3/4,-z+5/4,y+5/4
-z+1/2,x+1,-y+1
x+5/4,z+5/4,y+5/4
y+1/2,z+1/2,x+1/2
y+1/2,-z+1/2,-x+1
-z+3/4,-y+5/4,x+5/4
-y+1/2,z+1,-x+1
z+3/4,y+3/4,x+3/4
-y+1,-z+1/2,x+1
-z+3/4,y+3/4,-x+5/4
z+5/4,-y+3/4,-x+5/4
loop_
_atom_site_label
_atom_site_type_symbol
_atom_site_fract_x
_atom_site_fract_y
_atom_site_fract_z
_atom_site_occupancy
_atom_site_U_iso_or_equiv
Sm1 Sm+3 0.375 0 0.25 0.889 0.0
Se1 Se-2 0.072 0.072 0.072 1 0.0
