#------------------------------------------------------------------------------
#$Date: 2016-02-13 21:28:24 +0200 (Sat, 13 Feb 2016) $
#$Revision: 176429 $
#$URL: svn://www.crystallography.net/cod/cif/1/53/76/1537671.cif $
#------------------------------------------------------------------------------
#
# This file is available in the Crystallography Open Database (COD),
# http://www.crystallography.net/
#
# All data on this site have been placed in the public domain by the
# contributors.
#
data_1537671
loop_
_publ_author_name
'Chattopadhyay, T.K.'
'Santandrea, R.P.'
'von Schnering, H.G.'
_publ_section_title
;
 Temperature and pressure dependence of the crystal structure of In Te: A
 new high pressure phase of InTe
;
_journal_name_full               'Journal of Physics and Chemistry of Solids'
_journal_page_first              351
_journal_page_last               356
_journal_volume                  46
_journal_year                    1985
_chemical_formula_sum            'In Te'
_chemical_name_systematic        'In Te'
_space_group_IT_number           221
_symmetry_space_group_name_Hall  '-P 4 2 3'
_symmetry_space_group_name_H-M   'P m -3 m'
_cell_angle_alpha                90
_cell_angle_beta                 90
_cell_angle_gamma                90
_cell_formula_units_Z            1
_cell_length_a                   3.61
_cell_length_b                   3.61
_cell_length_c                   3.61
_cell_volume                     47.046
_citation_journal_id_ASTM        JPCSAW
_cod_data_source_file            Chattopadhyay_JPCSAW_1985_296.cif
_cod_data_source_block           In1Te1
_cod_original_cell_volume        47.04588
_cod_original_formula_sum        'In1 Te1'
_cod_database_code               1537671
loop_
_symmetry_equiv_pos_as_xyz
x,y,z
-y,x,z
-x,-y,z
y,-x,z
x,-y,-z
y,x,-z
-x,y,-z
-y,-x,-z
z,x,y
-x,z,y
-z,-x,y
x,-z,y
z,-x,-y
x,z,-y
-z,x,-y
-x,-z,-y
y,z,x
y,-z,-x
z,y,-x
-y,z,-x
-z,-y,-x
-y,-z,x
z,-y,x
-z,y,x
-x,-y,-z
y,-x,-z
x,y,-z
-y,x,-z
-x,y,z
-y,-x,z
x,-y,z
y,x,z
-z,-x,-y
x,-z,-y
z,x,-y
-x,z,-y
-z,x,y
-x,-z,y
z,-x,y
x,z,y
-y,-z,-x
-y,z,x
-z,-y,x
y,-z,x
z,y,x
y,z,-x
-z,y,-x
z,-y,-x
loop_
_atom_site_label
_atom_site_type_symbol
_atom_site_fract_x
_atom_site_fract_y
_atom_site_fract_z
_atom_site_occupancy
_atom_site_U_iso_or_equiv
In1 In 0 0 0 1 0.0
Te1 Te 0.5 0.5 0.5 1 0.0
