#------------------------------------------------------------------------------
#$Date: 2017-10-15 03:23:08 +0300 (Sun, 15 Oct 2017) $
#$Revision: 202022 $
#$URL: file:///home/coder/svn-repositories/cod/cif/5/00/02/5000217.cif $
#------------------------------------------------------------------------------
#
# This file is available in the Crystallography Open Database (COD),
# http://www.crystallography.net/
#
# All data on this site have been placed in the public domain by the
# contributors.
#
data_5000217
loop_
_publ_author_name
'Owen, E A'
'Williams, G I'
_publ_section_title              'A low-temperature X-ray camera'
_journal_name_full               'Journal of Scientific Instruments'
_journal_page_first              49
_journal_page_last               54
_journal_paper_doi               10.1088/0950-7671/31/2/305
_journal_volume                  31
_journal_year                    1954
_chemical_formula_structural     Fe
_chemical_formula_sum            Fe
_chemical_name_common            Iron
_chemical_name_mineral           Iron
_chemical_name_systematic        Iron
_space_group_IT_number           229
_symmetry_cell_setting           cubic
_symmetry_Int_Tables_number      229
_symmetry_space_group_name_Hall  '-I 4 2 3'
_symmetry_space_group_name_H-M   'I m -3 m'
_cell_angle_alpha                90
_cell_angle_beta                 90
_cell_angle_gamma                90
_cell_formula_units_Z            2
_cell_length_a                   2.8608(4)
_cell_length_b                   2.8608(4)
_cell_length_c                   2.8608(4)
_cell_volume                     23.4
_exptl_crystal_density_meas      7.87
_cod_database_code               5000217
loop_
_symmetry_equiv_pos_as_xyz
x,y,z
y,z,x
z,x,y
x,z,y
y,x,z
z,y,x
x,-y,-z
y,-z,-x
z,-x,-y
x,-z,-y
y,-x,-z
z,-y,-x
-x,y,-z
-y,z,-x
-z,x,-y
-x,z,-y
-y,x,-z
-z,y,-x
-x,-y,z
-y,-z,x
-z,-x,y
-x,-z,y
-y,-x,z
-z,-y,x
-x,-y,-z
-y,-z,-x
-z,-x,-y
-x,-z,-y
-y,-x,-z
-z,-y,-x
-x,y,z
-y,z,x
-z,x,y
-x,z,y
-y,x,z
-z,y,x
x,-y,z
y,-z,x
z,-x,y
x,-z,y
y,-x,z
z,-y,x
x,y,-z
y,z,-x
z,x,-y
x,z,-y
y,x,-z
z,y,-x
1/2+x,1/2+y,1/2+z
1/2+y,1/2+z,1/2+x
1/2+z,1/2+x,1/2+y
1/2+x,1/2+z,1/2+y
1/2+y,1/2+x,1/2+z
1/2+z,1/2+y,1/2+x
1/2+x,1/2-y,1/2-z
1/2+y,1/2-z,1/2-x
1/2+z,1/2-x,1/2-y
1/2+x,1/2-z,1/2-y
1/2+y,1/2-x,1/2-z
1/2+z,1/2-y,1/2-x
1/2-x,1/2+y,1/2-z
1/2-y,1/2+z,1/2-x
1/2-z,1/2+x,1/2-y
1/2-x,1/2+z,1/2-y
1/2-y,1/2+x,1/2-z
1/2-z,1/2+y,1/2-x
1/2-x,1/2-y,1/2+z
1/2-y,1/2-z,1/2+x
1/2-z,1/2-x,1/2+y
1/2-x,1/2-z,1/2+y
1/2-y,1/2-x,1/2+z
1/2-z,1/2-y,1/2+x
1/2-x,1/2-y,1/2-z
1/2-y,1/2-z,1/2-x
1/2-z,1/2-x,1/2-y
1/2-x,1/2-z,1/2-y
1/2-y,1/2-x,1/2-z
1/2-z,1/2-y,1/2-x
1/2-x,1/2+y,1/2+z
1/2-y,1/2+z,1/2+x
1/2-z,1/2+x,1/2+y
1/2-x,1/2+z,1/2+y
1/2-y,1/2+x,1/2+z
1/2-z,1/2+y,1/2+x
1/2+x,1/2-y,1/2+z
1/2+y,1/2-z,1/2+x
1/2+z,1/2-x,1/2+y
1/2+x,1/2-z,1/2+y
1/2+y,1/2-x,1/2+z
1/2+z,1/2-y,1/2+x
1/2+x,1/2+y,1/2-z
1/2+y,1/2+z,1/2-x
1/2+z,1/2+x,1/2-y
1/2+x,1/2+z,1/2-y
1/2+y,1/2+x,1/2-z
1/2+z,1/2+y,1/2-x
loop_
_atom_site_label
_atom_site_type_symbol
_atom_site_symmetry_multiplicity
_atom_site_Wyckoff_symbol
_atom_site_fract_x
_atom_site_fract_y
_atom_site_fract_z
_atom_site_occupancy
_atom_site_attached_hydrogens
_atom_site_calc_flag
Fe1 Fe0 2 a 0. 0. 0. 1. 0 d
loop_
_atom_type_symbol
_atom_type_oxidation_number
Fe0 0.000
loop_
_cod_related_entry_id
_cod_related_entry_database
_cod_related_entry_code
1 ChemSpider 22368
2 MPOD 1000023
3 MPOD 1000084
4 MPOD 1000085
5 MPOD 1000086
6 MPOD 1000087
