#------------------------------------------------------------------------------
#$Date: 2017-10-06 19:24:22 +0300 (Fri, 06 Oct 2017) $
#$Revision: 201816 $
#$URL: file:///home/coder/svn-repositories/cod/cif/9/01/67/9016730.cif $
#------------------------------------------------------------------------------
#
# This file is available in the Crystallography Open Database (COD),
# http://www.crystallography.net/. The original data for this entry
# were provided the American Mineralogist Crystal Structure Database,
# http://rruff.geo.arizona.edu/AMS/amcsd.php
#
# The file may be used within the scientific community so long as
# proper attribution is given to the journal article from which the
# data were obtained.
#
data_9016730
loop_
_publ_author_name
'Furuseth, S.'
'Selte, K.'
'Kjekshus, A.'
_publ_section_title
;
 On the solid solubility and structural properties of PdAs2-xSbx,
 PtP2-xAsx, PtP2-xSbx, PtP2-xBix, PtAs2-xSbx, PtAs2-xBix, PtSb2-xBix,
 Pdl-mPtmAs2, Pdl-mPtmSb2, Pdl-mAumSb2, and Ptl-mAumSb2
;
_journal_name_full               'Acta Chemica Scandinavica'
_journal_page_first              527
_journal_page_last               536
_journal_paper_doi               10.3891/acta.chem.scand.21-0527
_journal_volume                  21
_journal_year                    1967
_chemical_compound_source        Synthetic
_chemical_formula_sum            'Au Sb2'
_chemical_name_mineral           Aurostibite
_space_group_IT_number           205
_symmetry_space_group_name_Hall  '-P 2ac 2ab 3'
_symmetry_space_group_name_H-M   'P a -3'
_cell_angle_alpha                90
_cell_angle_beta                 90
_cell_angle_gamma                90
_cell_length_a                   6.6583
_cell_length_b                   6.6583
_cell_length_c                   6.6583
_cell_volume                     295.182
_database_code_amcsd             0017680
_exptl_crystal_density_diffrn    9.911
_cod_original_sg_symbol_H-M      'P a 3'
_cod_database_code               9016730
loop_
_space_group_symop_operation_xyz
x,y,z
1/2+z,x,1/2-y
z,1/2-x,1/2+y
1/2-z,1/2+x,y
-z,-x,-y
1/2+y,1/2-z,-x
1/2-y,-z,1/2+x
-y,1/2+z,1/2-x
y,z,x
x,1/2-y,1/2+z
1/2-x,1/2+y,z
1/2+x,y,1/2-z
-x,-y,-z
1/2-z,-x,1/2+y
-z,1/2+x,1/2-y
1/2+z,1/2-x,-y
z,x,y
1/2-y,1/2+z,x
1/2+y,z,1/2-x
y,1/2-z,1/2+x
-y,-z,-x
-x,1/2+y,1/2-z
1/2+x,1/2-y,-z
1/2-x,-y,1/2+z
loop_
_atom_site_label
_atom_site_fract_x
_atom_site_fract_y
_atom_site_fract_z
Au 0.00000 0.00000 0.00000
Sb 0.37600 0.37600 0.37600
loop_
_cod_related_entry_id
_cod_related_entry_database
_cod_related_entry_code
1 AMCSD 0017680
