#------------------------------------------------------------------------------
#$Date: 2017-10-06 19:24:22 +0300 (Fri, 06 Oct 2017) $
#$Revision: 201816 $
#$URL: file:///home/coder/svn-repositories/cod/cif/9/01/61/9016134.cif $
#------------------------------------------------------------------------------
#
# This file is available in the Crystallography Open Database (COD),
# http://www.crystallography.net/. The original data for this entry
# were provided the American Mineralogist Crystal Structure Database,
# http://rruff.geo.arizona.edu/AMS/amcsd.php
#
# The file may be used within the scientific community so long as
# proper attribution is given to the journal article from which the
# data were obtained.
#
data_9016134
loop_
_publ_author_name
'Aronsson, B.'
_publ_section_title
;
 A note on the compositions and crystal structures of MnB2, Mn3Si, Mn5Si3 and FeSi2
;
_journal_name_full               'Acta Chemica Scandinavica'
_journal_page_first              1414
_journal_page_last               1418
_journal_paper_doi               10.3891/acta.chem.scand.14-1414
_journal_volume                  14
_journal_year                    1960
_chemical_compound_source        Synthetic
_chemical_formula_sum            'Fe Si2'
_chemical_name_mineral           Linzhiite
_space_group_IT_number           123
_symmetry_space_group_name_Hall  '-P 4 2'
_symmetry_space_group_name_H-M   'P 4/m m m'
_cell_angle_alpha                90
_cell_angle_beta                 90
_cell_angle_gamma                90
_cell_length_a                   2.684
_cell_length_b                   2.684
_cell_length_c                   5.128
_cell_volume                     36.941
_database_code_amcsd             0018915
_exptl_crystal_density_diffrn    5.035
_cod_database_code               9016134
loop_
_space_group_symop_operation_xyz
x,y,z
-y,-x,z
y,x,-z
y,-x,-z
-y,x,z
x,-y,z
-x,y,-z
x,y,-z
-x,-y,z
y,x,z
-y,-x,-z
-y,x,-z
y,-x,z
-x,y,z
x,-y,-z
-x,-y,-z
loop_
_atom_site_label
_atom_site_fract_x
_atom_site_fract_y
_atom_site_fract_z
_atom_site_U_iso_or_equiv
Fe 0.00000 0.00000 0.00000 0.00510
Si 0.50000 0.50000 0.27000 0.00510
loop_
_cod_related_entry_id
_cod_related_entry_database
_cod_related_entry_code
1 AMCSD 0018915
