#------------------------------------------------------------------------------
#$Date: 2016-03-23 16:47:46 +0200 (Wed, 23 Mar 2016) $
#$Revision: 179394 $
#$URL: svn://www.crystallography.net/cod/cif/4/32/91/4329107.cif $
#------------------------------------------------------------------------------
#
# This file is available in the Crystallography Open Database (COD),
# http://www.crystallography.net/
#
# All data on this site have been placed in the public domain by the
# contributors.
#
data_4329107
loop_
_publ_author_name
'David Santamar\'ia-P\'erez'
'Miriam Marqu\'es'
'Raquel Chuli\'a-Jord\'an'
'Jos\'e Manuel Menendez'
'Oscar Gomis'
'Javier Ruiz-Fuertes'
'Juan Antonio Sans'
'Daniel Errandonea'
'Jos\'e Manuel Recio'
_publ_contact_author_address
; 
Departamento de Quimica-Fisica I
Universidad Complutense de Madrid
Avda Complutense s/n, E-28040, Madrid
Spain
;
_publ_contact_author_email       dsantamaria@quim.ucm.es
_publ_contact_author_name        'Dr. David Santamaria-Perez'
_publ_contact_author_phone       0034913945206
_publ_section_title
;
 Compression of Silver Sulfide: X-ray Diffraction Measurements and
 Total-Energy Calculations
;
_journal_name_full               'Inorganic Chemistry'
_journal_page_first              5289
_journal_page_last               5298
_journal_paper_doi               10.1021/ic300236p
_journal_volume                  51
_journal_year                    2012
_chemical_formula_moiety         'Ag2 S'
_chemical_formula_sum            'Ag2 S'
_chemical_formula_weight         247.80
_chemical_name_common            'Silver sulfide'
_chemical_name_systematic        ' ?'
_space_group_IT_number           14
_symmetry_cell_setting           monoclinic
_symmetry_space_group_name_Hall  '-P 2yn'
_symmetry_space_group_name_H-M   'P 1 21/n 1'
_cell_angle_alpha                90.00000
_cell_angle_beta                 99.672(3)
_cell_angle_gamma                90.00000
_cell_formula_units_Z            4
_cell_length_a                   4.1266(2)
_cell_length_b                   6.6989(4)
_cell_length_c                   7.8383(4)
_cell_measurement_temperature    293
_cell_volume                     213.60(2)
_computing_structure_refinement  FULLPROF
_diffrn_ambient_temperature      293
_diffrn_detector                 CCD
_diffrn_detector_type            CCD
_diffrn_measurement_device_type  'Diamond I15 beamline'
_diffrn_radiation_type           'Synchrotron X-ray radiation'
_diffrn_radiation_wavelength     0.4246
_diffrn_source                   synchrotron
_pd_char_colour                  black
_pd_instr_location               ' Synchrotron radiation'
_pd_meas_2theta_range_inc        0.014277
_pd_meas_2theta_range_max        22.09114
_pd_meas_2theta_range_min        2.93169
_pd_meas_number_of_points        1344
_pd_meas_scan_method             fixed
_pd_proc_2theta_range_inc        0.014277
_pd_proc_2theta_range_max        22.0860
_pd_proc_2theta_range_min        2.9266
_pd_proc_ls_background_function  '32 background points'
_pd_proc_ls_pref_orient_corr     ' '
_pd_proc_ls_profile_function     pseudo-Voigt
_pd_proc_ls_prof_R_factor        0.060165
_pd_proc_ls_prof_wR_expected     0.049402
_pd_proc_ls_prof_wR_factor       0.099471
_pd_proc_wavelength              0.424596
_pd_spec_mounting                ' Diamond-anvil cell (DAC) '
_pd_spec_mount_mode              transmission
_pd_spec_shape                   cylinder
_pd_spec_size_axial              0.2
_pd_spec_size_equat              0.05
_refine_ls_number_parameters     20
_refine_ls_number_reflns         176
_refine_ls_number_restraints     0
_refine_ls_R_I_factor            0.024809
_cod_data_source_file            ic300236p_si_001_1.cif
_cod_data_source_block           phase1
_cod_original_sg_symbol_H-M      'P 21/n'
_cod_database_code               4329107
#BEGIN Tags that were not found in dictionaries:
_pd_proc_ls_prof_cr_factor       0.053884
_pd_proc_ls_prof_cwr_factor      0.073101
_pd_proc_ls_prof_cwr_expected    0.036305
_pd_proc_ls_prof_chi2            4.0542
_pd_proc_ls_prof_echi2           4.2623
#END Tags that were not found in dictionaries
loop_
_symmetry_equiv_pos_as_xyz
x,y,z
-x+1/2,y+1/2,-z+1/2
-x,-y,-z
x+1/2,-y+1/2,z+1/2
loop_
_atom_site_label
_atom_site_fract_x
_atom_site_fract_y
_atom_site_fract_z
_atom_site_U_iso_or_equiv
_atom_site_occupancy
_atom_site_adp_type
_atom_site_type_symbol
Ag1 0.7440(4) 0.0269(3) 0.32764(19) 0.0349(6) 1.00000 Uiso Ag
Ag2 0.2532(4) 0.3406(3) 0.4402(3) 0.0247(5) 1.00000 Uiso Ag
S1 0.3261(11) 0.2526(7) 0.1313(6) 0.0120(12) 1.00000 Uiso S
loop_
_atom_type_symbol
_atom_type_scat_Cromer_Mann_a1
_atom_type_scat_Cromer_Mann_b1
_atom_type_scat_Cromer_Mann_a2
_atom_type_scat_Cromer_Mann_b2
_atom_type_scat_Cromer_Mann_a3
_atom_type_scat_Cromer_Mann_b3
_atom_type_scat_Cromer_Mann_a4
_atom_type_scat_Cromer_Mann_b4
_atom_type_scat_Cromer_Mann_c
_atom_type_scat_dispersion_real
_atom_type_scat_dispersion_imag
_atom_type_scat_source
ag 19.28080 0.64460 16.68850 7.47260 4.80450 24.66050 1.04630 99.81560 5.17900
-1.83400 0.71700
International_Tables_for_Crystallography_Vol.C(1991)_Tables_6.1.1.4_and_6.1.1.5
s 6.90530 1.46790 5.20340 22.21510 1.43790 0.25360 1.58630 56.17200 0.86690
0.06800 0.07600
International_Tables_for_Crystallography_Vol.C(1991)_Tables_6.1.1.4_and_6.1.1.5
