#------------------------------------------------------------------------------
#$Date: 2016-02-13 21:28:24 +0200 (Sat, 13 Feb 2016) $
#$Revision: 176429 $
#$URL: svn://www.crystallography.net/cod/cif/1/52/25/1522579.cif $
#------------------------------------------------------------------------------
#
# This file is available in the Crystallography Open Database (COD),
# http://www.crystallography.net/
#
# All data on this site have been placed in the public domain by the
# contributors.
#
data_1522579
loop_
_publ_author_name
'Nellis, W.J.'
'Dunlap, B.D.'
'Harvey, A.R.'
'Davidson, G.R.'
'Lander, G.H.'
'Brodsky, M.B.'
'Reddy, J.F.'
'Mueller, M.H.'
_publ_section_title
;
 Magnetic properties of Np Pd3 and Pu Pd3 intermetallic compounds
;
_journal_name_full
;
Physical Review, Serie 3. B - Solid State (1,1970-17,1977)
;
_journal_page_first              1041
_journal_page_last               1051
_journal_volume                  9
_journal_year                    1974
_chemical_formula_sum            'Np Pd3'
_chemical_name_systematic        'Np Pd3'
_space_group_IT_number           221
_symmetry_space_group_name_Hall  '-P 4 2 3'
_symmetry_space_group_name_H-M   'P m -3 m'
_cell_angle_alpha                90
_cell_angle_beta                 90
_cell_angle_gamma                90
_cell_formula_units_Z            1
_cell_length_a                   4.095
_cell_length_b                   4.095
_cell_length_c                   4.095
_cell_volume                     68.669
_citation_journal_id_ASTM        PLRBAQ
_cod_data_source_file            Nellis_PLRBAQ_1974_1598.cif
_cod_data_source_block           Np1Pd3
_cod_original_cell_volume        68.66914
_cod_original_formula_sum        'Np1 Pd3'
_cod_database_code               1522579
loop_
_symmetry_equiv_pos_as_xyz
x,y,z
-y,x,z
-x,-y,z
y,-x,z
x,-y,-z
y,x,-z
-x,y,-z
-y,-x,-z
z,x,y
-x,z,y
-z,-x,y
x,-z,y
z,-x,-y
x,z,-y
-z,x,-y
-x,-z,-y
y,z,x
y,-z,-x
z,y,-x
-y,z,-x
-z,-y,-x
-y,-z,x
z,-y,x
-z,y,x
-x,-y,-z
y,-x,-z
x,y,-z
-y,x,-z
-x,y,z
-y,-x,z
x,-y,z
y,x,z
-z,-x,-y
x,-z,-y
z,x,-y
-x,z,-y
-z,x,y
-x,-z,y
z,-x,y
x,z,y
-y,-z,-x
-y,z,x
-z,-y,x
y,-z,x
z,y,x
y,z,-x
-z,y,-x
z,-y,-x
loop_
_atom_site_label
_atom_site_type_symbol
_atom_site_fract_x
_atom_site_fract_y
_atom_site_fract_z
_atom_site_occupancy
_atom_site_U_iso_or_equiv
Pd1 Pd 0 0.5 0.5 1 0.0
Np1 Np 0 0 0 1 0.0
