#------------------------------------------------------------------------------
#$Date: 2015-07-10 23:10:39 +0300 (Fri, 10 Jul 2015) $
#$Revision: 143298 $
#$URL: svn://www.crystallography.net/cod/cif/1/52/29/1522993.cif $
#------------------------------------------------------------------------------
#
# This file is available in the Crystallography Open Database (COD),
# http://www.crystallography.net/
#
# All data on this site have been placed in the public domain by the
# contributors.
#
data_1522993
loop_
_publ_author_name
'Taylor, A.'
'Doyle, N.J.'
'Kagle, B.J.'
_publ_section_title
;
 The constitution diagram of the system Mo-Os
;
_journal_name_full               'Journal of the Less-Common Metals'
_journal_page_first              436
_journal_page_last               450
_journal_volume                  4
_journal_year                    1962
_chemical_formula_sum            'Mo0.41 Os0.59'
_chemical_name_systematic        '(Mo0.41 Os0.59)'
_space_group_IT_number           194
_symmetry_space_group_name_Hall  '-P 6c 2c'
_symmetry_space_group_name_H-M   'P 63/m m c'
_cell_angle_alpha                90
_cell_angle_beta                 90
_cell_angle_gamma                120
_cell_formula_units_Z            2
_cell_length_a                   2.76
_cell_length_b                   2.76
_cell_length_c                   4.418
_cell_volume                     29.146
_citation_journal_id_ASTM        JCOMAH
_cod_data_source_file            Taylor_JCOMAH_1962_1238.cif
_cod_data_source_block           Mo0.41Os0.59
_cod_original_cell_volume        29.1457
_cod_database_code               1522993
loop_
_symmetry_equiv_pos_as_xyz
x,y,z
x-y,x,z+1/2
-y,x-y,z
-x,-y,z+1/2
-x+y,-x,z
y,-x+y,z+1/2
-y,-x,-z+1/2
x-y,-y,-z
x,x-y,-z+1/2
y,x,-z
-x+y,y,-z+1/2
-x,-x+y,-z
-x,-y,-z
-x+y,-x,-z-1/2
y,-x+y,-z
x,y,-z-1/2
x-y,x,-z
-y,x-y,-z-1/2
y,x,z-1/2
-x+y,y,z
-x,-x+y,z-1/2
-y,-x,z
x-y,-y,z-1/2
x,x-y,z
loop_
_atom_site_label
_atom_site_type_symbol
_atom_site_fract_x
_atom_site_fract_y
_atom_site_fract_z
_atom_site_occupancy
_atom_site_U_iso_or_equiv
Os1 Os 0.3333 0.6667 0.25 0.59 0.0
Mo1 Mo 0.3333 0.6667 0.25 0.41 0.0
