#------------------------------------------------------------------------------
#$Date: 2016-02-13 21:28:24 +0200 (Sat, 13 Feb 2016) $
#$Revision: 176429 $
#$URL: svn://www.crystallography.net/cod/cif/1/52/22/1522286.cif $
#------------------------------------------------------------------------------
#
# This file is available in the Crystallography Open Database (COD),
# http://www.crystallography.net/
#
# All data on this site have been placed in the public domain by the
# contributors.
#
data_1522286
loop_
_publ_author_name
'Kripyakevich, P.I.'
'Dzyana, D.I.'
'Markiv, V.Ya.'
_publ_section_title
;
 R Ga3 compounds in systems of rare earth-metal-gallium
;
_journal_name_full
'Ukrains'kii Fizichnii Zhurnal (Russian Edition)'
_journal_page_first              908
_journal_page_last               910
_journal_volume                  9
_journal_year                    1964
_chemical_formula_sum            'Ga3 Ho'
_chemical_name_systematic        'Ga3 Ho'
_space_group_IT_number           221
_symmetry_space_group_name_Hall  '-P 4 2 3'
_symmetry_space_group_name_H-M   'P m -3 m'
_cell_angle_alpha                90
_cell_angle_beta                 90
_cell_angle_gamma                90
_cell_formula_units_Z            1
_cell_length_a                   4.226
_cell_length_b                   4.226
_cell_length_c                   4.226
_cell_volume                     75.472
_citation_journal_id_ASTM        UFIZAW
_cod_data_source_file            Kripyakevich_UFIZAW_1964_169.cif
_cod_data_source_block           Ga3Ho1
_cod_original_cell_volume        75.47244
_cod_original_formula_sum        'Ga3 Ho1'
_cod_database_code               1522286
loop_
_symmetry_equiv_pos_as_xyz
x,y,z
-y,x,z
-x,-y,z
y,-x,z
x,-y,-z
y,x,-z
-x,y,-z
-y,-x,-z
z,x,y
-x,z,y
-z,-x,y
x,-z,y
z,-x,-y
x,z,-y
-z,x,-y
-x,-z,-y
y,z,x
y,-z,-x
z,y,-x
-y,z,-x
-z,-y,-x
-y,-z,x
z,-y,x
-z,y,x
-x,-y,-z
y,-x,-z
x,y,-z
-y,x,-z
-x,y,z
-y,-x,z
x,-y,z
y,x,z
-z,-x,-y
x,-z,-y
z,x,-y
-x,z,-y
-z,x,y
-x,-z,y
z,-x,y
x,z,y
-y,-z,-x
-y,z,x
-z,-y,x
y,-z,x
z,y,x
y,z,-x
-z,y,-x
z,-y,-x
loop_
_atom_site_label
_atom_site_type_symbol
_atom_site_fract_x
_atom_site_fract_y
_atom_site_fract_z
_atom_site_occupancy
_atom_site_U_iso_or_equiv
Ho1 Ho 0 0 0 1 0.0
Ga1 Ga 0 0.5 0.5 1 0.0
