#------------------------------------------------------------------------------
#$Date: 2016-02-13 21:28:24 +0200 (Sat, 13 Feb 2016) $
#$Revision: 176429 $
#$URL: svn://www.crystallography.net/cod/cif/1/52/22/1522272.cif $
#------------------------------------------------------------------------------
#
# This file is available in the Crystallography Open Database (COD),
# http://www.crystallography.net/
#
# All data on this site have been placed in the public domain by the
# contributors.
#
data_1522272
loop_
_publ_author_name
'Kripyakevich, P.I.'
'Gladyshevskii, E.I.'
'Dzyana, D.I.'
_publ_section_title
;
 Binary intermetallic compounds of the Ba Al4 type containing gallium
;
_journal_name_full               Kristallografiya
_journal_page_first              471
_journal_page_last               473
_journal_volume                  10
_journal_year                    1965
_chemical_formula_sum            'Ga4 Sr'
_chemical_name_systematic        'Ga4 Sr'
_space_group_IT_number           139
_symmetry_space_group_name_Hall  '-I 4 2'
_symmetry_space_group_name_H-M   'I 4/m m m'
_cell_angle_alpha                90
_cell_angle_beta                 90
_cell_angle_gamma                90
_cell_formula_units_Z            2
_cell_length_a                   4.44
_cell_length_b                   4.44
_cell_length_c                   10.75
_cell_volume                     211.921
_citation_journal_id_ASTM        KRISAJ
_cod_data_source_file            Kripyakevich_KRISAJ_1965_360.cif
_cod_data_source_block           Ga4Sr1
_cod_original_cell_volume        211.9212
_cod_original_formula_sum        'Ga4 Sr1'
_cod_database_code               1522272
loop_
_symmetry_equiv_pos_as_xyz
x,y,z
-y,x,z
-x,-y,z
y,-x,z
x,-y,-z
y,x,-z
-x,y,-z
-y,-x,-z
-x,-y,-z
y,-x,-z
x,y,-z
-y,x,-z
-x,y,z
-y,-x,z
x,-y,z
y,x,z
x+1/2,y+1/2,z+1/2
-y+1/2,x+1/2,z+1/2
-x+1/2,-y+1/2,z+1/2
y+1/2,-x+1/2,z+1/2
x+1/2,-y+1/2,-z+1/2
y+1/2,x+1/2,-z+1/2
-x+1/2,y+1/2,-z+1/2
-y+1/2,-x+1/2,-z+1/2
-x+1/2,-y+1/2,-z+1/2
y+1/2,-x+1/2,-z+1/2
x+1/2,y+1/2,-z+1/2
-y+1/2,x+1/2,-z+1/2
-x+1/2,y+1/2,z+1/2
-y+1/2,-x+1/2,z+1/2
x+1/2,-y+1/2,z+1/2
y+1/2,x+1/2,z+1/2
loop_
_atom_site_label
_atom_site_type_symbol
_atom_site_fract_x
_atom_site_fract_y
_atom_site_fract_z
_atom_site_occupancy
_atom_site_U_iso_or_equiv
Sr1 Sr 0 0 0 1 0.0
Ga2 Ga 0 0 0.38 1 0.0
Ga1 Ga 0 0.5 0.25 1 0.0
