#------------------------------------------------------------------------------
#$Date: 2015-07-10 19:13:49 +0300 (Fri, 10 Jul 2015) $
#$Revision: 142865 $
#$URL: svn://www.crystallography.net/cod/cif/1/52/26/1522604.cif $
#------------------------------------------------------------------------------
#
# This file is available in the Crystallography Open Database (COD),
# http://www.crystallography.net/
#
# All data on this site have been placed in the public domain by the
# contributors.
#
data_1522604
loop_
_publ_author_name
'Nowotny, H.'
'Bauer, E.'
'Stempfl, A.'
_publ_section_title
;
 Ein Beitrag zum System Palladium-Zink
;
_journal_name_full               'Monatshefte fuer Chemie (-108,1977)'
_journal_page_first              1086
_journal_page_last               1093
_journal_volume                  82
_journal_year                    1951
_chemical_formula_sum            'Pd1.35401 Zn0.64699'
_chemical_name_systematic        '(Pd2.03 Zn0.97)0.667'
_space_group_IT_number           221
_symmetry_space_group_name_Hall  '-P 4 2 3'
_symmetry_space_group_name_H-M   'P m -3 m'
_cell_angle_alpha                90
_cell_angle_beta                 90
_cell_angle_gamma                90
_cell_formula_units_Z            1
_cell_length_a                   3.055
_cell_length_b                   3.055
_cell_length_c                   3.055
_cell_volume                     28.512
_citation_journal_id_ASTM        MOCHAP
_cod_data_source_file            Nowotny_MOCHAP_1951_1808.cif
_cod_data_source_block           Pd1.35401Zn0.64699
_cod_original_cell_volume        28.51239
_cod_database_code               1522604
loop_
_symmetry_equiv_pos_as_xyz
x,y,z
-y,x,z
-x,-y,z
y,-x,z
x,-y,-z
y,x,-z
-x,y,-z
-y,-x,-z
z,x,y
-x,z,y
-z,-x,y
x,-z,y
z,-x,-y
x,z,-y
-z,x,-y
-x,-z,-y
y,z,x
y,-z,-x
z,y,-x
-y,z,-x
-z,-y,-x
-y,-z,x
z,-y,x
-z,y,x
-x,-y,-z
y,-x,-z
x,y,-z
-y,x,-z
-x,y,z
-y,-x,z
x,-y,z
y,x,z
-z,-x,-y
x,-z,-y
z,x,-y
-x,z,-y
-z,x,y
-x,-z,y
z,-x,y
x,z,y
-y,-z,-x
-y,z,x
-z,-y,x
y,-z,x
z,y,x
y,z,-x
-z,y,-x
z,-y,-x
loop_
_atom_site_label
_atom_site_type_symbol
_atom_site_fract_x
_atom_site_fract_y
_atom_site_fract_z
_atom_site_occupancy
_atom_site_U_iso_or_equiv
Pd2 Pd 0.5 0.5 0.5 0.323 0.0
Pd1 Pd 0 0 0 1 0.0
Zn1 Zn 0.5 0.5 0.5 0.677 0.0
