#------------------------------------------------------------------------------
#$Date: 2016-02-13 21:28:24 +0200 (Sat, 13 Feb 2016) $
#$Revision: 176429 $
#$URL: svn://www.crystallography.net/cod/cif/1/52/24/1522483.cif $
#------------------------------------------------------------------------------
#
# This file is available in the Crystallography Open Database (COD),
# http://www.crystallography.net/
#
# All data on this site have been placed in the public domain by the
# contributors.
#
data_1522483
loop_
_publ_author_name
'Martin, O.E.'
'Girgis, K.'
_publ_section_title
;
 Crystalline and magnetic structures in RE Alx Ga2-x systems (RE= Nd, Er;
 x=0-2) PartI: Crystalline structures
;
_journal_name_full               'Journal of Magnetism and Magnetic Materials'
_journal_page_first              228
_journal_page_last               230
_journal_volume                  37
_journal_year                    1983
_chemical_formula_sum            'Ga2 Nd'
_chemical_name_systematic        'Ga2 Nd'
_space_group_IT_number           191
_symmetry_space_group_name_Hall  '-P 6 2'
_symmetry_space_group_name_H-M   'P 6/m m m'
_cell_angle_alpha                90
_cell_angle_beta                 90
_cell_angle_gamma                120
_cell_formula_units_Z            1
_cell_length_a                   4.275
_cell_length_b                   4.275
_cell_length_c                   4.275
_cell_volume                     67.661
_citation_journal_id_ASTM        JMMMDC
_cod_data_source_file            Martin_JMMMDC_1983_251.cif
_cod_data_source_block           Ga2Nd1
_cod_original_cell_volume        67.66109
_cod_original_formula_sum        'Ga2 Nd1'
_cod_database_code               1522483
loop_
_symmetry_equiv_pos_as_xyz
x,y,z
x-y,x,z
-y,x-y,z
-x,-y,z
-x+y,-x,z
y,-x+y,z
-y,-x,-z
x-y,-y,-z
x,x-y,-z
y,x,-z
-x+y,y,-z
-x,-x+y,-z
-x,-y,-z
-x+y,-x,-z
y,-x+y,-z
x,y,-z
x-y,x,-z
-y,x-y,-z
y,x,z
-x+y,y,z
-x,-x+y,z
-y,-x,z
x-y,-y,z
x,x-y,z
loop_
_atom_site_label
_atom_site_type_symbol
_atom_site_fract_x
_atom_site_fract_y
_atom_site_fract_z
_atom_site_occupancy
_atom_site_U_iso_or_equiv
Nd1 Nd 0 0 0 1 0.0
Ga1 Ga 0.3333 0.6667 0.5 1 0.0
