#------------------------------------------------------------------------------
#$Date: 2015-07-10 19:13:43 +0300 (Fri, 10 Jul 2015) $
#$Revision: 142864 $
#$URL: svn://www.crystallography.net/cod/cif/1/52/26/1522603.cif $
#------------------------------------------------------------------------------
#
# This file is available in the Crystallography Open Database (COD),
# http://www.crystallography.net/
#
# All data on this site have been placed in the public domain by the
# contributors.
#
data_1522603
loop_
_publ_author_name
'Nowotny, H.'
'Pesl, J.'
_publ_section_title
;
 Untersuchungen im System Titan-Blei
;
_journal_name_full               'Monatshefte fuer Chemie (-108,1977)'
_journal_page_first              344
_journal_page_last               347
_journal_volume                  82
_journal_year                    1951
_chemical_formula_sum            'Pb0.8 Ti3.2'
_chemical_name_systematic        'Pb0.8 Ti3.2'
_space_group_IT_number           194
_symmetry_space_group_name_Hall  '-P 6c 2c'
_symmetry_space_group_name_H-M   'P 63/m m c'
_cell_angle_alpha                90
_cell_angle_beta                 90
_cell_angle_gamma                120
_cell_formula_units_Z            2
_cell_length_a                   5.985
_cell_length_b                   5.985
_cell_length_c                   4.846
_cell_volume                     150.329
_citation_journal_id_ASTM        MOCHAP
_cod_data_source_file            Nowotny_MOCHAP_1951_1710.cif
_cod_data_source_block           Pb0.8Ti3.2
_cod_original_cell_volume        150.3289
_cod_database_code               1522603
loop_
_symmetry_equiv_pos_as_xyz
x,y,z
x-y,x,z+1/2
-y,x-y,z
-x,-y,z+1/2
-x+y,-x,z
y,-x+y,z+1/2
-y,-x,-z+1/2
x-y,-y,-z
x,x-y,-z+1/2
y,x,-z
-x+y,y,-z+1/2
-x,-x+y,-z
-x,-y,-z
-x+y,-x,-z-1/2
y,-x+y,-z
x,y,-z-1/2
x-y,x,-z
-y,x-y,-z-1/2
y,x,z-1/2
-x+y,y,z
-x,-x+y,z-1/2
-y,-x,z
x-y,-y,z-1/2
x,x-y,z
loop_
_atom_site_label
_atom_site_type_symbol
_atom_site_fract_x
_atom_site_fract_y
_atom_site_fract_z
_atom_site_occupancy
_atom_site_U_iso_or_equiv
Ti2 Ti 0.833 0.666 0.25 1 0.0
Pb1 Pb 0.3333 0.6667 0.25 0.8 0.0
Ti1 Ti 0.3333 0.6667 0.25 0.2 0.0
