#------------------------------------------------------------------------------
#$Date: 2016-02-13 21:28:24 +0200 (Sat, 13 Feb 2016) $
#$Revision: 176429 $
#$URL: svn://www.crystallography.net/cod/cif/1/52/27/1522771.cif $
#------------------------------------------------------------------------------
#
# This file is available in the Crystallography Open Database (COD),
# http://www.crystallography.net/
#
# All data on this site have been placed in the public domain by the
# contributors.
#
data_1522771
loop_
_publ_author_name
'Raub, E.'
'Beeskow, H.'
'Fritzsche, W.'
_publ_section_title
;
 Die Struktur der festen Tantal-Ruthenium Legierungen
;
_journal_name_full               'Zeitschrift fuer Metallkunde'
_journal_page_first              451
_journal_page_last               454
_journal_volume                  54
_journal_year                    1963
_chemical_formula_sum            'Ru Ta'
_chemical_name_systematic        'Ru Ta'
_space_group_IT_number           123
_symmetry_space_group_name_Hall  '-P 4 2'
_symmetry_space_group_name_H-M   'P 4/m m m'
_cell_angle_alpha                90
_cell_angle_beta                 90
_cell_angle_gamma                90
_cell_formula_units_Z            1
_cell_length_a                   3.155
_cell_length_b                   3.155
_cell_length_c                   3.206
_cell_volume                     31.913
_citation_journal_id_ASTM        ZEMTAE
_cod_data_source_file            Raub_ZEMTAE_1963_1997.cif
_cod_data_source_block           Ru1Ta1
_cod_original_cell_volume        31.91261
_cod_original_formula_sum        'Ru1 Ta1'
_cod_database_code               1522771
loop_
_symmetry_equiv_pos_as_xyz
x,y,z
-y,x,z
-x,-y,z
y,-x,z
x,-y,-z
y,x,-z
-x,y,-z
-y,-x,-z
-x,-y,-z
y,-x,-z
x,y,-z
-y,x,-z
-x,y,z
-y,-x,z
x,-y,z
y,x,z
loop_
_atom_site_label
_atom_site_type_symbol
_atom_site_fract_x
_atom_site_fract_y
_atom_site_fract_z
_atom_site_occupancy
_atom_site_U_iso_or_equiv
Ru1 Ru 0 0 0 1 0.0
Ta1 Ta 0.5 0.5 0.5 1 0.0
