#------------------------------------------------------------------------------
#$Date: 2015-07-10 22:18:21 +0300 (Fri, 10 Jul 2015) $
#$Revision: 143112 $
#$URL: svn://www.crystallography.net/cod/cif/1/52/28/1522829.cif $
#------------------------------------------------------------------------------
#
# This file is available in the Crystallography Open Database (COD),
# http://www.crystallography.net/
#
# All data on this site have been placed in the public domain by the
# contributors.
#
data_1522829
loop_
_publ_author_name
'Savitskii, E.M.'
'Tylkina, M.A.'
'Khamidov, O.Kh.'
_publ_section_title
;
 Investigation of the solid solubility of transition metals in rhenium and
 some properties of their alloys
;
_journal_name_full               'Izvestiya Akademii Nauk SSSR, Metally'
_journal_page_first              130
_journal_page_last               135
_journal_volume                  1969
_journal_year                    1969
_chemical_formula_sum            'Mo0.09 Re0.91'
_chemical_name_systematic        '(Mo.09 Re.91)'
_space_group_IT_number           194
_symmetry_space_group_name_Hall  '-P 6c 2c'
_symmetry_space_group_name_H-M   'P 63/m m c'
_cell_angle_alpha                90
_cell_angle_beta                 90
_cell_angle_gamma                120
_cell_formula_units_Z            2
_cell_length_a                   2.757
_cell_length_b                   2.757
_cell_length_c                   4.456
_cell_volume                     29.333
_citation_journal_id_ASTM        IZNMAQ
_cod_data_source_file            Savitskii_IZNMAQ_1969_1265.cif
_cod_data_source_block           Mo0.09Re0.91
_cod_original_cell_volume        29.33252
_cod_database_code               1522829
loop_
_symmetry_equiv_pos_as_xyz
x,y,z
x-y,x,z+1/2
-y,x-y,z
-x,-y,z+1/2
-x+y,-x,z
y,-x+y,z+1/2
-y,-x,-z+1/2
x-y,-y,-z
x,x-y,-z+1/2
y,x,-z
-x+y,y,-z+1/2
-x,-x+y,-z
-x,-y,-z
-x+y,-x,-z-1/2
y,-x+y,-z
x,y,-z-1/2
x-y,x,-z
-y,x-y,-z-1/2
y,x,z-1/2
-x+y,y,z
-x,-x+y,z-1/2
-y,-x,z
x-y,-y,z-1/2
x,x-y,z
loop_
_atom_site_label
_atom_site_type_symbol
_atom_site_fract_x
_atom_site_fract_y
_atom_site_fract_z
_atom_site_occupancy
_atom_site_U_iso_or_equiv
Mo1 Mo 0.3333 0.6667 0.25 0.09 0.0
Re1 Re 0.3333 0.6667 0.25 0.91 0.0
