#------------------------------------------------------------------------------
#$Date: 2016-02-13 21:28:24 +0200 (Sat, 13 Feb 2016) $
#$Revision: 176429 $
#$URL: svn://www.crystallography.net/cod/cif/1/52/25/1522586.cif $
#------------------------------------------------------------------------------
#
# This file is available in the Crystallography Open Database (COD),
# http://www.crystallography.net/
#
# All data on this site have been placed in the public domain by the
# contributors.
#
data_1522586
loop_
_publ_author_name
'Nevitt, M.V.'
'Downey, J.W.'
_publ_section_title
;
 A familly of intermetallic phases having the Si2 Mo-type structure
;
_journal_name_full
'Transactions of the Metallurgical Society of Aime'
_journal_page_first              195
_journal_page_last               196
_journal_volume                  224
_journal_year                    1962
_chemical_formula_sum            'Hf2 Pd'
_chemical_name_systematic        'Hf2 Pd'
_space_group_IT_number           139
_symmetry_space_group_name_Hall  '-I 4 2'
_symmetry_space_group_name_H-M   'I 4/m m m'
_cell_angle_alpha                90
_cell_angle_beta                 90
_cell_angle_gamma                90
_cell_formula_units_Z            2
_cell_length_a                   3.251
_cell_length_b                   3.251
_cell_length_c                   11.061
_cell_volume                     116.904
_citation_journal_id_ASTM        TMSAAB
_cod_data_source_file            Nevitt_TMSAAB_1962_579.cif
_cod_data_source_block           Hf2Pd1
_cod_original_cell_volume        116.9037
_cod_original_formula_sum        'Hf2 Pd1'
_cod_database_code               1522586
loop_
_symmetry_equiv_pos_as_xyz
x,y,z
-y,x,z
-x,-y,z
y,-x,z
x,-y,-z
y,x,-z
-x,y,-z
-y,-x,-z
-x,-y,-z
y,-x,-z
x,y,-z
-y,x,-z
-x,y,z
-y,-x,z
x,-y,z
y,x,z
x+1/2,y+1/2,z+1/2
-y+1/2,x+1/2,z+1/2
-x+1/2,-y+1/2,z+1/2
y+1/2,-x+1/2,z+1/2
x+1/2,-y+1/2,-z+1/2
y+1/2,x+1/2,-z+1/2
-x+1/2,y+1/2,-z+1/2
-y+1/2,-x+1/2,-z+1/2
-x+1/2,-y+1/2,-z+1/2
y+1/2,-x+1/2,-z+1/2
x+1/2,y+1/2,-z+1/2
-y+1/2,x+1/2,-z+1/2
-x+1/2,y+1/2,z+1/2
-y+1/2,-x+1/2,z+1/2
x+1/2,-y+1/2,z+1/2
y+1/2,x+1/2,z+1/2
loop_
_atom_site_label
_atom_site_type_symbol
_atom_site_fract_x
_atom_site_fract_y
_atom_site_fract_z
_atom_site_occupancy
_atom_site_U_iso_or_equiv
Pd1 Pd 0 0 0 1 0.0
Hf1 Hf 0 0 0.33 1 0.0
