#------------------------------------------------------------------------------
#$Date: 2016-02-13 21:28:24 +0200 (Sat, 13 Feb 2016) $
#$Revision: 176429 $
#$URL: svn://www.crystallography.net/cod/cif/1/52/27/1522752.cif $
#------------------------------------------------------------------------------
#
# This file is available in the Crystallography Open Database (COD),
# http://www.crystallography.net/
#
# All data on this site have been placed in the public domain by the
# contributors.
#
data_1522752
loop_
_publ_author_name
'Raub, E.'
_publ_section_title
;
 Metals and alloys of the platinum group
;
_journal_name_full               'Journal of the Less-Common Metals'
_journal_page_first              3
_journal_page_last               18
_journal_volume                  1
_journal_year                    1959
_chemical_formula_sum            'Ir Ru'
_chemical_name_systematic        '(Ir Ru)'
_space_group_IT_number           194
_symmetry_space_group_name_Hall  '-P 6c 2c'
_symmetry_space_group_name_H-M   'P 63/m m c'
_cell_angle_alpha                90
_cell_angle_beta                 90
_cell_angle_gamma                120
_cell_formula_units_Z            1
_cell_length_a                   2.72
_cell_length_b                   2.72
_cell_length_c                   4.33
_cell_volume                     27.743
_citation_journal_id_ASTM        JCOMAH
_cod_data_source_file            Raub_JCOMAH_1959_806.cif
_cod_data_source_block           Ir1Ru1
_cod_original_cell_volume        27.74319
_cod_original_formula_sum        'Ir1 Ru1'
_cod_database_code               1522752
loop_
_symmetry_equiv_pos_as_xyz
x,y,z
x-y,x,z+1/2
-y,x-y,z
-x,-y,z+1/2
-x+y,-x,z
y,-x+y,z+1/2
-y,-x,-z+1/2
x-y,-y,-z
x,x-y,-z+1/2
y,x,-z
-x+y,y,-z+1/2
-x,-x+y,-z
-x,-y,-z
-x+y,-x,-z-1/2
y,-x+y,-z
x,y,-z-1/2
x-y,x,-z
-y,x-y,-z-1/2
y,x,z-1/2
-x+y,y,z
-x,-x+y,z-1/2
-y,-x,z
x-y,-y,z-1/2
x,x-y,z
loop_
_atom_site_label
_atom_site_type_symbol
_atom_site_fract_x
_atom_site_fract_y
_atom_site_fract_z
_atom_site_occupancy
_atom_site_U_iso_or_equiv
Ru1 Ru 0.3333 0.6667 0.25 0.5 0.0
Ir1 Ir 0.3333 0.6667 0.25 0.5 0.0
