#------------------------------------------------------------------------------
#$Date: 2015-07-10 18:44:28 +0300 (Fri, 10 Jul 2015) $
#$Revision: 142700 $
#$URL: svn://www.crystallography.net/cod/cif/1/52/24/1522475.cif $
#------------------------------------------------------------------------------
#
# This file is available in the Crystallography Open Database (COD),
# http://www.crystallography.net/
#
# All data on this site have been placed in the public domain by the
# contributors.
#
data_1522475
loop_
_publ_author_name
'Marples, J.A.C.'
_publ_section_title
;
 The plutonium-zirconium phase diagram
;
_journal_name_full               'Journal of the Less-Common Metals'
_journal_page_first              331
_journal_page_last               351
_journal_volume                  2
_journal_year                    1960
_chemical_formula_sum            'Pu0.75 Zr2.25'
_chemical_name_systematic        'Pu0.75 Zr2.25'
_space_group_IT_number           191
_symmetry_space_group_name_Hall  '-P 6 2'
_symmetry_space_group_name_H-M   'P 6/m m m'
_cell_angle_alpha                90
_cell_angle_beta                 90
_cell_angle_gamma                120
_cell_formula_units_Z            1
_cell_length_a                   5.055
_cell_length_b                   5.055
_cell_length_c                   3.123
_cell_volume                     69.111
_citation_journal_id_ASTM        JCOMAH
_cod_data_source_file            Marples_JCOMAH_1960_1911.cif
_cod_data_source_block           Pu0.75Zr2.25
_cod_original_cell_volume        69.11063
_cod_database_code               1522475
loop_
_symmetry_equiv_pos_as_xyz
x,y,z
x-y,x,z
-y,x-y,z
-x,-y,z
-x+y,-x,z
y,-x+y,z
-y,-x,-z
x-y,-y,-z
x,x-y,-z
y,x,-z
-x+y,y,-z
-x,-x+y,-z
-x,-y,-z
-x+y,-x,-z
y,-x+y,-z
x,y,-z
x-y,x,-z
-y,x-y,-z
y,x,z
-x+y,y,z
-x,-x+y,z
-y,-x,z
x-y,-y,z
x,x-y,z
loop_
_atom_site_label
_atom_site_type_symbol
_atom_site_fract_x
_atom_site_fract_y
_atom_site_fract_z
_atom_site_occupancy
_atom_site_U_iso_or_equiv
Zr2 Zr 0 0 0 1 0.0
Pu1 Pu 0.3333 0.6667 0.5 0.375 0.0
Zr1 Zr 0.3333 0.6667 0.5 0.625 0.0
