#------------------------------------------------------------------------------
#$Date: 2016-02-13 21:28:24 +0200 (Sat, 13 Feb 2016) $
#$Revision: 176429 $
#$URL: svn://www.crystallography.net/cod/cif/1/52/26/1522632.cif $
#------------------------------------------------------------------------------
#
# This file is available in the Crystallography Open Database (COD),
# http://www.crystallography.net/
#
# All data on this site have been placed in the public domain by the
# contributors.
#
data_1522632
loop_
_publ_author_name
'Oesterreicher, H.'
_publ_section_title
;
 Structural studies on materials from Tb Fe3 to Tb2 Fe17 with aluminium
 substitution for iron
;
_journal_name_full               'Journal of the Less-Common Metals'
_journal_page_first              207
_journal_page_last               219
_journal_volume                  40
_journal_year                    1975
_chemical_formula_sum            'Fe3 Tb'
_chemical_name_systematic        'Fe3 Tb'
_space_group_IT_number           166
_symmetry_space_group_name_Hall  '-R 3 2"'
_symmetry_space_group_name_H-M   'R -3 m :H'
_cell_angle_alpha                90
_cell_angle_beta                 90
_cell_angle_gamma                120
_cell_formula_units_Z            9
_cell_length_a                   5.135
_cell_length_b                   5.135
_cell_length_c                   24.62
_cell_volume                     562.211
_citation_journal_id_ASTM        JCOMAH
_cod_data_source_file            Oesterreicher_JCOMAH_1975_81.cif
_cod_data_source_block           Fe3Tb1
_cod_original_cell_volume        562.2114
_cod_original_formula_sum        'Fe3 Tb1'
_cod_database_code               1522632
loop_
_symmetry_equiv_pos_as_xyz
x,y,z
-y,x-y,z
-x+y,-x,z
y,x,-z
-x,-x+y,-z
x-y,-y,-z
-x,-y,-z
y,-x+y,-z
x-y,x,-z
-y,-x,z
x,x-y,z
-x+y,y,z
x+2/3,y+1/3,z+1/3
-y+2/3,x-y+1/3,z+1/3
-x+y+2/3,-x+1/3,z+1/3
y+2/3,x+1/3,-z+1/3
-x+2/3,-x+y+1/3,-z+1/3
x-y+2/3,-y+1/3,-z+1/3
-x+2/3,-y+1/3,-z+1/3
y+2/3,-x+y+1/3,-z+1/3
x-y+2/3,x+1/3,-z+1/3
-y+2/3,-x+1/3,z+1/3
x+2/3,x-y+1/3,z+1/3
-x+y+2/3,y+1/3,z+1/3
x+1/3,y+2/3,z+2/3
-y+1/3,x-y+2/3,z+2/3
-x+y+1/3,-x+2/3,z+2/3
y+1/3,x+2/3,-z+2/3
-x+1/3,-x+y+2/3,-z+2/3
x-y+1/3,-y+2/3,-z+2/3
-x+1/3,-y+2/3,-z+2/3
y+1/3,-x+y+2/3,-z+2/3
x-y+1/3,x+2/3,-z+2/3
-y+1/3,-x+2/3,z+2/3
x+1/3,x-y+2/3,z+2/3
-x+y+1/3,y+2/3,z+2/3
loop_
_atom_site_label
_atom_site_type_symbol
_atom_site_fract_x
_atom_site_fract_y
_atom_site_fract_z
_atom_site_occupancy
_atom_site_U_iso_or_equiv
Tb2 Tb 0 0 0.143 1 0.0
Fe3 Fe 0.5 0.5 0.083 1 0.0
Fe2 Fe 0 0 0.333 1 0.0
Tb1 Tb 0 0 0 1 0.0
Fe1 Fe 0 0 0.5 1 0.0
