#------------------------------------------------------------------------------
#$Date: 2015-07-10 22:13:26 +0300 (Fri, 10 Jul 2015) $
#$Revision: 143093 $
#$URL: svn://www.crystallography.net/cod/cif/1/52/28/1522810.cif $
#------------------------------------------------------------------------------
#
# This file is available in the Crystallography Open Database (COD),
# http://www.crystallography.net/
#
# All data on this site have been placed in the public domain by the
# contributors.
#
data_1522810
loop_
_publ_author_name
'Ruhl, R.C.'
'Giessen, B.C.'
'Cohen, M.'
'Grant, N.J.'
_publ_section_title
;
 Metastable hexagonal close-packed phases in Ni-rich Ni-Nb and Ni-Ta
 alloys
;
_journal_name_full               'Journal of the Less-Common Metals'
_journal_page_first              611
_journal_page_last               618
_journal_volume                  13
_journal_year                    1967
_chemical_formula_sum            'Ni0.77 Ta0.23'
_chemical_name_systematic        '(Ni0.77 Ta0.23)'
_space_group_IT_number           194
_symmetry_space_group_name_Hall  '-P 6c 2c'
_symmetry_space_group_name_H-M   'P 63/m m c'
_cell_angle_alpha                90
_cell_angle_beta                 90
_cell_angle_gamma                120
_cell_formula_units_Z            2
_cell_length_a                   2.585
_cell_length_b                   2.585
_cell_length_c                   4.229
_cell_volume                     24.473
_citation_journal_id_ASTM        JCOMAH
_cod_data_source_file            Ruhl_JCOMAH_1967_1522.cif
_cod_data_source_block           Ni0.77Ta0.23
_cod_original_cell_volume        24.47313
_cod_database_code               1522810
loop_
_symmetry_equiv_pos_as_xyz
x,y,z
x-y,x,z+1/2
-y,x-y,z
-x,-y,z+1/2
-x+y,-x,z
y,-x+y,z+1/2
-y,-x,-z+1/2
x-y,-y,-z
x,x-y,-z+1/2
y,x,-z
-x+y,y,-z+1/2
-x,-x+y,-z
-x,-y,-z
-x+y,-x,-z-1/2
y,-x+y,-z
x,y,-z-1/2
x-y,x,-z
-y,x-y,-z-1/2
y,x,z-1/2
-x+y,y,z
-x,-x+y,z-1/2
-y,-x,z
x-y,-y,z-1/2
x,x-y,z
loop_
_atom_site_label
_atom_site_type_symbol
_atom_site_fract_x
_atom_site_fract_y
_atom_site_fract_z
_atom_site_occupancy
_atom_site_U_iso_or_equiv
Ni1 Ni 0.3333 0.6667 0.25 0.77 0.0
Ta1 Ta 0.3333 0.6667 0.25 0.23 0.0
