#------------------------------------------------------------------------------
#$Date: 2015-07-10 22:35:54 +0300 (Fri, 10 Jul 2015) $
#$Revision: 143174 $
#$URL: svn://www.crystallography.net/cod/cif/1/52/28/1522884.cif $
#------------------------------------------------------------------------------
#
# This file is available in the Crystallography Open Database (COD),
# http://www.crystallography.net/
#
# All data on this site have been placed in the public domain by the
# contributors.
#
data_1522884
loop_
_publ_author_name
'Selte, K.'
'Kjekshus, A.'
_publ_section_title
;
 The crystal structures of Nb5 Se4 and Nb5 Te4
;
_journal_name_full
'Acta Chemica Scandinavica (1-27,1973-42,1988)'
_journal_page_first              2560
_journal_page_last               2562
_journal_volume                  17
_journal_year                    1963
_chemical_formula_sum            'Nb5 Te4'
_chemical_name_systematic        'Nb5 Te4'
_space_group_IT_number           87
_symmetry_space_group_name_Hall  '-I 4'
_symmetry_space_group_name_H-M   'I 4/m'
_cell_angle_alpha                90
_cell_angle_beta                 90
_cell_angle_gamma                90
_cell_formula_units_Z            2
_cell_length_a                   10.231
_cell_length_b                   10.231
_cell_length_c                   3.7194
_cell_volume                     389.322
_citation_journal_id_ASTM        ACSAA4
_cod_data_source_file            Selte_ACSAA4_1963_1409.cif
_cod_data_source_block           Nb5Te4
_cod_original_cell_volume        389.3221
_cod_database_code               1522884
loop_
_symmetry_equiv_pos_as_xyz
x,y,z
-y,x,z
-x,-y,z
y,-x,z
-x,-y,-z
y,-x,-z
x,y,-z
-y,x,-z
x+1/2,y+1/2,z+1/2
-y+1/2,x+1/2,z+1/2
-x+1/2,-y+1/2,z+1/2
y+1/2,-x+1/2,z+1/2
-x+1/2,-y+1/2,-z+1/2
y+1/2,-x+1/2,-z+1/2
x+1/2,y+1/2,-z+1/2
-y+1/2,x+1/2,-z+1/2
loop_
_atom_site_label
_atom_site_type_symbol
_atom_site_fract_x
_atom_site_fract_y
_atom_site_fract_z
_atom_site_occupancy
_atom_site_U_iso_or_equiv
Nb1 Nb+1 0 0 0 1 0.0
Nb2 Nb+1 0.31 0.38 0 1 0.0
Te1 Te-2 0.06 0.28 0 1 0.0
