#------------------------------------------------------------------------------
#$Date: 2016-02-13 21:28:24 +0200 (Sat, 13 Feb 2016) $
#$Revision: 176429 $
#$URL: svn://www.crystallography.net/cod/cif/1/52/20/1522091.cif $
#------------------------------------------------------------------------------
#
# This file is available in the Crystallography Open Database (COD),
# http://www.crystallography.net/
#
# All data on this site have been placed in the public domain by the
# contributors.
#
data_1522091
loop_
_publ_author_name
'Koebler, U.'
'Kinzel, W.'
'Zinn, W.'
_publ_section_title
;
 Magnetic phase diagram of Gd Ag1-x Znx
;
_journal_name_full               'Journal of Magnetism and Magnetic Materials'
_journal_page_first              124
_journal_page_last               134
_journal_volume                  25
_journal_year                    1981
_chemical_formula_sum            'Gd Zn'
_chemical_name_systematic        'Gd Zn'
_space_group_IT_number           221
_symmetry_space_group_name_Hall  '-P 4 2 3'
_symmetry_space_group_name_H-M   'P m -3 m'
_cell_angle_alpha                90
_cell_angle_beta                 90
_cell_angle_gamma                90
_cell_formula_units_Z            1
_cell_length_a                   3.618
_cell_length_b                   3.618
_cell_length_c                   3.618
_cell_volume                     47.359
_citation_journal_id_ASTM        JMMMDC
_cod_data_source_file            Koebler_JMMMDC_1981_500.cif
_cod_data_source_block           Gd1Zn1
_cod_original_cell_volume        47.35934
_cod_original_formula_sum        'Gd1 Zn1'
_cod_database_code               1522091
loop_
_symmetry_equiv_pos_as_xyz
x,y,z
-y,x,z
-x,-y,z
y,-x,z
x,-y,-z
y,x,-z
-x,y,-z
-y,-x,-z
z,x,y
-x,z,y
-z,-x,y
x,-z,y
z,-x,-y
x,z,-y
-z,x,-y
-x,-z,-y
y,z,x
y,-z,-x
z,y,-x
-y,z,-x
-z,-y,-x
-y,-z,x
z,-y,x
-z,y,x
-x,-y,-z
y,-x,-z
x,y,-z
-y,x,-z
-x,y,z
-y,-x,z
x,-y,z
y,x,z
-z,-x,-y
x,-z,-y
z,x,-y
-x,z,-y
-z,x,y
-x,-z,y
z,-x,y
x,z,y
-y,-z,-x
-y,z,x
-z,-y,x
y,-z,x
z,y,x
y,z,-x
-z,y,-x
z,-y,-x
loop_
_atom_site_label
_atom_site_type_symbol
_atom_site_fract_x
_atom_site_fract_y
_atom_site_fract_z
_atom_site_occupancy
_atom_site_U_iso_or_equiv
Gd1 Gd 0 0 0 1 0.0
Zn1 Zn 0.5 0.5 0.5 1 0.0
