#------------------------------------------------------------------------------
#$Date: 2015-07-10 18:57:47 +0300 (Fri, 10 Jul 2015) $
#$Revision: 142772 $
#$URL: svn://www.crystallography.net/cod/cif/1/52/25/1522532.cif $
#------------------------------------------------------------------------------
#
# This file is available in the Crystallography Open Database (COD),
# http://www.crystallography.net/
#
# All data on this site have been placed in the public domain by the
# contributors.
#
data_1522532
loop_
_publ_author_name
'Ming Lichung'
'Katahara, K.W.'
'Manghnani, M.H.'
_publ_section_title
;
 Investigation of alpha-omega transformation in the Zr-Hf system to 42 GPa
;
_journal_name_full               'Journal of Applied Physics'
_journal_page_first              1332
_journal_page_last               1335
_journal_volume                  52
_journal_year                    1981
_chemical_formula_sum            'Hf0.43 Zr0.57'
_chemical_name_systematic        '(Hf0.43 Zr0.57)'
_space_group_IT_number           194
_symmetry_space_group_name_Hall  '-P 6c 2c'
_symmetry_space_group_name_H-M   'P 63/m m c'
_cell_angle_alpha                90
_cell_angle_beta                 90
_cell_angle_gamma                120
_cell_formula_units_Z            2
_cell_length_a                   3.209
_cell_length_b                   3.209
_cell_length_c                   5.126
_cell_volume                     45.714
_citation_journal_id_ASTM        JAPIAU
_cod_data_source_file            MingLichung_JAPIAU_1981_612.cif
_cod_data_source_block           Hf0.43Zr0.57
_cod_original_cell_volume        45.71394
_cod_database_code               1522532
loop_
_symmetry_equiv_pos_as_xyz
x,y,z
x-y,x,z+1/2
-y,x-y,z
-x,-y,z+1/2
-x+y,-x,z
y,-x+y,z+1/2
-y,-x,-z+1/2
x-y,-y,-z
x,x-y,-z+1/2
y,x,-z
-x+y,y,-z+1/2
-x,-x+y,-z
-x,-y,-z
-x+y,-x,-z-1/2
y,-x+y,-z
x,y,-z-1/2
x-y,x,-z
-y,x-y,-z-1/2
y,x,z-1/2
-x+y,y,z
-x,-x+y,z-1/2
-y,-x,z
x-y,-y,z-1/2
x,x-y,z
loop_
_atom_site_label
_atom_site_type_symbol
_atom_site_fract_x
_atom_site_fract_y
_atom_site_fract_z
_atom_site_occupancy
_atom_site_U_iso_or_equiv
Zr1 Zr 0.3333 0.6667 0.25 0.57 0.0
Hf1 Hf 0.3333 0.6667 0.25 0.43 0.0
