#------------------------------------------------------------------------------
#$Date: 2015-07-10 18:51:44 +0300 (Fri, 10 Jul 2015) $
#$Revision: 142728 $
#$URL: svn://www.crystallography.net/cod/cif/1/52/25/1522500.cif $
#------------------------------------------------------------------------------
#
# This file is available in the Crystallography Open Database (COD),
# http://www.crystallography.net/
#
# All data on this site have been placed in the public domain by the
# contributors.
#
data_1522500
loop_
_publ_author_name
'McMasters, O.D.'
'Gschneidner, K.A.jr.'
_publ_section_title
;
 Ytterbium-magnesium system
;
_journal_name_full               'Journal of the Less-Common Metals'
_journal_page_first              289
_journal_page_last               298
_journal_volume                  8
_journal_year                    1965
_chemical_formula_sum            'Mg0.988 Yb0.012'
_chemical_name_systematic        '(Mg0.988 Yb0.012)'
_space_group_IT_number           194
_symmetry_space_group_name_Hall  '-P 6c 2c'
_symmetry_space_group_name_H-M   'P 63/m m c'
_cell_angle_alpha                90
_cell_angle_beta                 90
_cell_angle_gamma                120
_cell_formula_units_Z            2
_cell_length_a                   3.2118
_cell_length_b                   3.2118
_cell_length_c                   5.2156
_cell_volume                     46.594
_citation_journal_id_ASTM        JCOMAH
_cod_data_source_file            McMasters_JCOMAH_1965_1107.cif
_cod_data_source_block           Mg0.988Yb0.012
_cod_original_cell_volume        46.59421
_cod_database_code               1522500
loop_
_symmetry_equiv_pos_as_xyz
x,y,z
x-y,x,z+1/2
-y,x-y,z
-x,-y,z+1/2
-x+y,-x,z
y,-x+y,z+1/2
-y,-x,-z+1/2
x-y,-y,-z
x,x-y,-z+1/2
y,x,-z
-x+y,y,-z+1/2
-x,-x+y,-z
-x,-y,-z
-x+y,-x,-z-1/2
y,-x+y,-z
x,y,-z-1/2
x-y,x,-z
-y,x-y,-z-1/2
y,x,z-1/2
-x+y,y,z
-x,-x+y,z-1/2
-y,-x,z
x-y,-y,z-1/2
x,x-y,z
loop_
_atom_site_label
_atom_site_type_symbol
_atom_site_fract_x
_atom_site_fract_y
_atom_site_fract_z
_atom_site_occupancy
_atom_site_U_iso_or_equiv
Mg1 Mg 0.3333 0.6667 0.25 0.988 0.0
Yb1 Yb 0.3333 0.6667 0.25 0.012 0.0
