#------------------------------------------------------------------------------
#$Date: 2015-07-10 19:32:56 +0300 (Fri, 10 Jul 2015) $
#$Revision: 142973 $
#$URL: svn://www.crystallography.net/cod/cif/1/52/27/1522704.cif $
#------------------------------------------------------------------------------
#
# This file is available in the Crystallography Open Database (COD),
# http://www.crystallography.net/
#
# All data on this site have been placed in the public domain by the
# contributors.
#
data_1522704
loop_
_publ_author_name
'Poetzschke, M.'
'Schubert, K.'
_publ_section_title
;
 Zum Aufbau einiger T(4)-B(3) homologer und quasihomologer Systeme. I. Die
 Systeme Ti-Ga, Zr-Ga und Hf-Ga
;
_journal_name_full               'Zeitschrift fuer Metallkunde'
_journal_page_first              474
_journal_page_last               488
_journal_volume                  53
_journal_year                    1953
_chemical_formula_sum            'Ga3 Ti2'
_chemical_name_systematic        'Ga3 Ti2'
_space_group_IT_number           83
_symmetry_space_group_name_Hall  '-P 4'
_symmetry_space_group_name_H-M   'P 4/m'
_cell_angle_alpha                90
_cell_angle_beta                 90
_cell_angle_gamma                90
_cell_formula_units_Z            2
_cell_length_a                   6.284
_cell_length_b                   6.284
_cell_length_c                   4.01
_cell_volume                     158.350
_citation_journal_id_ASTM        ZEMTAE
_cod_data_source_file            Poetzschke_ZEMTAE_1953_379.cif
_cod_data_source_block           Ga3Ti2
_cod_original_cell_volume        158.3495
_cod_database_code               1522704
loop_
_symmetry_equiv_pos_as_xyz
x,y,z
-y,x,z
-x,-y,z
y,-x,z
-x,-y,-z
y,-x,-z
x,y,-z
-y,x,-z
loop_
_atom_site_label
_atom_site_type_symbol
_atom_site_fract_x
_atom_site_fract_y
_atom_site_fract_z
_atom_site_occupancy
_atom_site_U_iso_or_equiv
Ga1 Ga 0 0 0 1 0.0
Ga2 Ga 0.5 0.5 0.5 1 0.0
Ga3 Ga 0.186 0.391 0 1 0.0
Ti1 Ti 0.309 0.125 0.5 1 0.0
