#------------------------------------------------------------------------------
#$Date: 2015-07-10 22:00:43 +0300 (Fri, 10 Jul 2015) $
#$Revision: 143049 $
#$URL: svn://www.crystallography.net/cod/cif/1/52/27/1522770.cif $
#------------------------------------------------------------------------------
#
# This file is available in the Crystallography Open Database (COD),
# http://www.crystallography.net/
#
# All data on this site have been placed in the public domain by the
# contributors.
#
data_1522770
loop_
_publ_author_name
'Raub, E.'
'Fritzsche, W.'
_publ_section_title
;
 Die Niob-Ruthenium Legierungen
;
_journal_name_full               'Zeitschrift fuer Metallkunde'
_journal_page_first              317
_journal_page_last               319
_journal_volume                  54
_journal_year                    1963
_chemical_formula_sum            'Nb1.1 Ru0.9'
_chemical_name_systematic        '(Nb1.1 Ru0.9)'
_space_group_IT_number           139
_symmetry_space_group_name_Hall  '-I 4 2'
_symmetry_space_group_name_H-M   'I 4/m m m'
_cell_angle_alpha                90
_cell_angle_beta                 90
_cell_angle_gamma                90
_cell_formula_units_Z            1
_cell_length_a                   3.104
_cell_length_b                   3.104
_cell_length_c                   4.682
_cell_volume                     45.110
_citation_journal_id_ASTM        ZEMTAE
_cod_data_source_file            Raub_ZEMTAE_1963_1389.cif
_cod_data_source_block           Nb1.1Ru0.9
_cod_original_cell_volume        45.11021
_cod_database_code               1522770
loop_
_symmetry_equiv_pos_as_xyz
x,y,z
-y,x,z
-x,-y,z
y,-x,z
x,-y,-z
y,x,-z
-x,y,-z
-y,-x,-z
-x,-y,-z
y,-x,-z
x,y,-z
-y,x,-z
-x,y,z
-y,-x,z
x,-y,z
y,x,z
x+1/2,y+1/2,z+1/2
-y+1/2,x+1/2,z+1/2
-x+1/2,-y+1/2,z+1/2
y+1/2,-x+1/2,z+1/2
x+1/2,-y+1/2,-z+1/2
y+1/2,x+1/2,-z+1/2
-x+1/2,y+1/2,-z+1/2
-y+1/2,-x+1/2,-z+1/2
-x+1/2,-y+1/2,-z+1/2
y+1/2,-x+1/2,-z+1/2
x+1/2,y+1/2,-z+1/2
-y+1/2,x+1/2,-z+1/2
-x+1/2,y+1/2,z+1/2
-y+1/2,-x+1/2,z+1/2
x+1/2,-y+1/2,z+1/2
y+1/2,x+1/2,z+1/2
loop_
_atom_site_label
_atom_site_type_symbol
_atom_site_fract_x
_atom_site_fract_y
_atom_site_fract_z
_atom_site_occupancy
_atom_site_U_iso_or_equiv
Ru1 Ru 0 0 0 0.45 0.0
Nb1 Nb 0 0 0 0.55 0.0
