#------------------------------------------------------------------------------
#$Date: 2016-02-13 21:28:24 +0200 (Sat, 13 Feb 2016) $
#$Revision: 176429 $
#$URL: svn://www.crystallography.net/cod/cif/1/52/27/1522731.cif $
#------------------------------------------------------------------------------
#
# This file is available in the Crystallography Open Database (COD),
# http://www.crystallography.net/
#
# All data on this site have been placed in the public domain by the
# contributors.
#
data_1522731
loop_
_publ_author_name
'Prokin, E.S.'
'Ershova, Z.V.'
'Ermolaev, E.E.'
_publ_section_title
;
 Crystal structure of scandium monopolonide
;
_journal_name_full               Radiokhimiya
_journal_page_first              845
_journal_page_last               846
_journal_volume                  19
_journal_year                    1977
_chemical_formula_sum            'Po Sc'
_chemical_name_systematic        'Po Sc'
_space_group_IT_number           194
_symmetry_space_group_name_Hall  '-P 6c 2c'
_symmetry_space_group_name_H-M   'P 63/m m c'
_cell_angle_alpha                90
_cell_angle_beta                 90
_cell_angle_gamma                120
_cell_formula_units_Z            2
_cell_length_a                   4.206
_cell_length_b                   4.206
_cell_length_c                   6.92
_cell_volume                     106.017
_citation_journal_id_ASTM        RADKAU
_cod_data_source_file            Prokin_RADKAU_1977_1818.cif
_cod_data_source_block           Po1Sc1
_cod_original_cell_volume        106.0169
_cod_original_formula_sum        'Po1 Sc1'
_cod_database_code               1522731
loop_
_symmetry_equiv_pos_as_xyz
x,y,z
x-y,x,z+1/2
-y,x-y,z
-x,-y,z+1/2
-x+y,-x,z
y,-x+y,z+1/2
-y,-x,-z+1/2
x-y,-y,-z
x,x-y,-z+1/2
y,x,-z
-x+y,y,-z+1/2
-x,-x+y,-z
-x,-y,-z
-x+y,-x,-z-1/2
y,-x+y,-z
x,y,-z-1/2
x-y,x,-z
-y,x-y,-z-1/2
y,x,z-1/2
-x+y,y,z
-x,-x+y,z-1/2
-y,-x,z
x-y,-y,z-1/2
x,x-y,z
loop_
_atom_site_label
_atom_site_type_symbol
_atom_site_fract_x
_atom_site_fract_y
_atom_site_fract_z
_atom_site_occupancy
_atom_site_U_iso_or_equiv
Sc1 Sc 0.3333 0.6667 0.25 1 0.0
Po1 Po 0 0 0 1 0.0
