#------------------------------------------------------------------------------
#$Date: 2015-07-10 22:53:46 +0300 (Fri, 10 Jul 2015) $
#$Revision: 143239 $
#$URL: svn://www.crystallography.net/cod/cif/1/52/29/1522942.cif $
#------------------------------------------------------------------------------
#
# This file is available in the Crystallography Open Database (COD),
# http://www.crystallography.net/
#
# All data on this site have been placed in the public domain by the
# contributors.
#
data_1522942
loop_
_publ_author_name
'Spitsyn, V.I.'
'Grishina, S.P.'
'Balakhovskii, O.A.'
'Krasovskii, A.I.'
_publ_section_title
;
 Investigation of Ni-Tc alloys
;
_journal_name_full               'Izvestiya Akademii Nauk SSSR, Metally'
_journal_page_first              156
_journal_page_last               158
_journal_volume                  1975
_journal_year                    1975
_chemical_formula_sum            'Ni0.42 Tc0.58'
_chemical_name_systematic        '(Ni0.42 Tc0.58)'
_space_group_IT_number           194
_symmetry_space_group_name_Hall  '-P 6c 2c'
_symmetry_space_group_name_H-M   'P 63/m m c'
_cell_angle_alpha                90
_cell_angle_beta                 90
_cell_angle_gamma                120
_cell_formula_units_Z            2
_cell_length_a                   2.65
_cell_length_b                   2.65
_cell_length_c                   4.22
_cell_volume                     25.665
_citation_journal_id_ASTM        IZNMAQ
_cod_data_source_file            Spitsyn_IZNMAQ_1975_1529.cif
_cod_data_source_block           Ni0.42Tc0.58
_cod_original_cell_volume        25.66462
_cod_database_code               1522942
loop_
_symmetry_equiv_pos_as_xyz
x,y,z
x-y,x,z+1/2
-y,x-y,z
-x,-y,z+1/2
-x+y,-x,z
y,-x+y,z+1/2
-y,-x,-z+1/2
x-y,-y,-z
x,x-y,-z+1/2
y,x,-z
-x+y,y,-z+1/2
-x,-x+y,-z
-x,-y,-z
-x+y,-x,-z-1/2
y,-x+y,-z
x,y,-z-1/2
x-y,x,-z
-y,x-y,-z-1/2
y,x,z-1/2
-x+y,y,z
-x,-x+y,z-1/2
-y,-x,z
x-y,-y,z-1/2
x,x-y,z
loop_
_atom_site_label
_atom_site_type_symbol
_atom_site_fract_x
_atom_site_fract_y
_atom_site_fract_z
_atom_site_occupancy
_atom_site_U_iso_or_equiv
Tc1 Tc 0.3333 0.6667 0.25 0.58 0.0
Ni1 Ni 0.3333 0.6667 0.25 0.42 0.0
