#------------------------------------------------------------------------------
#$Date: 2015-07-10 19:33:43 +0300 (Fri, 10 Jul 2015) $
#$Revision: 142980 $
#$URL: svn://www.crystallography.net/cod/cif/1/52/27/1522711.cif $
#------------------------------------------------------------------------------
#
# This file is available in the Crystallography Open Database (COD),
# http://www.crystallography.net/
#
# All data on this site have been placed in the public domain by the
# contributors.
#
data_1522711
loop_
_publ_author_name
'Poetzschke, M.'
'Schubert, K.'
_publ_section_title
;
 Zum Aufbau einiger T(4)-B(3) homologer und quasihomologer Systeme. I. Die
 Systeme Ti-Ga, Zr-Ga und Hf-Ga
;
_journal_name_full               'Zeitschrift fuer Metallkunde'
_journal_page_first              474
_journal_page_last               488
_journal_volume                  53
_journal_year                    1962
_chemical_formula_sum            'Ga3 Zr2'
_chemical_name_systematic        'Ga3 Zr2'
_space_group_IT_number           43
_symmetry_space_group_name_Hall  'F 2 -2d'
_symmetry_space_group_name_H-M   'F d d 2'
_cell_angle_alpha                90
_cell_angle_beta                 90
_cell_angle_gamma                90
_cell_formula_units_Z            8
_cell_length_a                   9.444
_cell_length_b                   13.755
_cell_length_c                   5.497
_cell_volume                     714.073
_citation_journal_id_ASTM        ZEMTAE
_cod_data_source_file            Poetzschke_ZEMTAE_1962_419.cif
_cod_data_source_block           Ga3Zr2
_cod_original_cell_volume        714.0726
_cod_database_code               1522711
loop_
_symmetry_equiv_pos_as_xyz
x,y,z
-x,-y,z
-x+1/4,y+1/4,z+1/4
x+3/4,-y+3/4,z+1/4
x,y+1/2,z+1/2
-x,-y+1/2,z+1/2
-x+1/4,y+3/4,z+3/4
x+3/4,-y+5/4,z+3/4
x+1/2,y,z+1/2
-x+1/2,-y,z+1/2
-x+3/4,y+1/4,z+3/4
x+5/4,-y+3/4,z+3/4
x+1/2,y+1/2,z
-x+1/2,-y+1/2,z
-x+3/4,y+3/4,z+1/4
x+5/4,-y+5/4,z+1/4
loop_
_atom_site_label
_atom_site_type_symbol
_atom_site_fract_x
_atom_site_fract_y
_atom_site_fract_z
_atom_site_occupancy
_atom_site_U_iso_or_equiv
Zr1 Zr 0.179 0.054 0 1 0.0
Ga1 Ga 0 0 0.52 1 0.0
Ga2 Ga 0.187 0.12 0.5 1 0.0
