#------------------------------------------------------------------------------
#$Date: 2016-02-13 21:28:24 +0200 (Sat, 13 Feb 2016) $
#$Revision: 176429 $
#$URL: svn://www.crystallography.net/cod/cif/1/52/26/1522642.cif $
#------------------------------------------------------------------------------
#
# This file is available in the Crystallography Open Database (COD),
# http://www.crystallography.net/
#
# All data on this site have been placed in the public domain by the
# contributors.
#
data_1522642
loop_
_publ_author_name
'Oster, F.'
'Braun, E.'
'Politt, B.'
'Langen, J.'
'Schmidt, H.'
'Lossau, N.'
_publ_section_title
;
 Magnetic ordering of some mixed valent Yb-compounds
;
_journal_name_full               'Journal of Magnetism and Magnetic Materials'
_journal_page_first              629
_journal_page_last               631
_journal_volume                  63
_journal_year                    1987
_chemical_formula_sum            'Pt3 Yb'
_chemical_name_systematic        'Pt3 Yb'
_space_group_IT_number           221
_symmetry_space_group_name_Hall  '-P 4 2 3'
_symmetry_space_group_name_H-M   'P m -3 m'
_cell_angle_alpha                90
_cell_angle_beta                 90
_cell_angle_gamma                90
_cell_formula_units_Z            1
_cell_length_a                   4.081
_cell_length_b                   4.081
_cell_length_c                   4.081
_cell_volume                     67.967
_citation_journal_id_ASTM        JMMMDC
_cod_data_source_file            Oster_JMMMDC_1987_1879.cif
_cod_data_source_block           Pt3Yb1
_cod_original_cell_volume        67.96725
_cod_original_formula_sum        'Pt3 Yb1'
_cod_database_code               1522642
loop_
_symmetry_equiv_pos_as_xyz
x,y,z
-y,x,z
-x,-y,z
y,-x,z
x,-y,-z
y,x,-z
-x,y,-z
-y,-x,-z
z,x,y
-x,z,y
-z,-x,y
x,-z,y
z,-x,-y
x,z,-y
-z,x,-y
-x,-z,-y
y,z,x
y,-z,-x
z,y,-x
-y,z,-x
-z,-y,-x
-y,-z,x
z,-y,x
-z,y,x
-x,-y,-z
y,-x,-z
x,y,-z
-y,x,-z
-x,y,z
-y,-x,z
x,-y,z
y,x,z
-z,-x,-y
x,-z,-y
z,x,-y
-x,z,-y
-z,x,y
-x,-z,y
z,-x,y
x,z,y
-y,-z,-x
-y,z,x
-z,-y,x
y,-z,x
z,y,x
y,z,-x
-z,y,-x
z,-y,-x
loop_
_atom_site_label
_atom_site_type_symbol
_atom_site_fract_x
_atom_site_fract_y
_atom_site_fract_z
_atom_site_occupancy
_atom_site_U_iso_or_equiv
Yb1 Yb 0 0 0 1 0.0
Pt1 Pt 0 0.5 0.5 1 0.0
