#------------------------------------------------------------------------------
#$Date: 2016-02-13 21:28:24 +0200 (Sat, 13 Feb 2016) $
#$Revision: 176429 $
#$URL: svn://www.crystallography.net/cod/cif/1/52/23/1522376.cif $
#------------------------------------------------------------------------------
#
# This file is available in the Crystallography Open Database (COD),
# http://www.crystallography.net/
#
# All data on this site have been placed in the public domain by the
# contributors.
#
data_1522376
loop_
_publ_author_name
'Lihl, F.'
_publ_section_title
;
 Ueber den Aufbau des Systems Quecksilber-Mangan
;
_journal_name_full               'Monatshefte fuer Chemie (-108,1977)'
_journal_page_first              186
_journal_page_last               191
_journal_volume                  86
_journal_year                    1955
_chemical_formula_sum            'Hg Mn'
_chemical_name_systematic        'Hg Mn'
_space_group_IT_number           221
_symmetry_space_group_name_Hall  '-P 4 2 3'
_symmetry_space_group_name_H-M   'P m -3 m'
_cell_angle_alpha                90
_cell_angle_beta                 90
_cell_angle_gamma                90
_cell_formula_units_Z            1
_cell_length_a                   3.315
_cell_length_b                   3.315
_cell_length_c                   3.315
_cell_volume                     36.429
_citation_journal_id_ASTM        MOCHAP
_cod_data_source_file            Lihl_MOCHAP_1955_639.cif
_cod_data_source_block           Hg1Mn1
_cod_original_cell_volume        36.42928
_cod_original_formula_sum        'Hg1 Mn1'
_cod_database_code               1522376
loop_
_symmetry_equiv_pos_as_xyz
x,y,z
-y,x,z
-x,-y,z
y,-x,z
x,-y,-z
y,x,-z
-x,y,-z
-y,-x,-z
z,x,y
-x,z,y
-z,-x,y
x,-z,y
z,-x,-y
x,z,-y
-z,x,-y
-x,-z,-y
y,z,x
y,-z,-x
z,y,-x
-y,z,-x
-z,-y,-x
-y,-z,x
z,-y,x
-z,y,x
-x,-y,-z
y,-x,-z
x,y,-z
-y,x,-z
-x,y,z
-y,-x,z
x,-y,z
y,x,z
-z,-x,-y
x,-z,-y
z,x,-y
-x,z,-y
-z,x,y
-x,-z,y
z,-x,y
x,z,y
-y,-z,-x
-y,z,x
-z,-y,x
y,-z,x
z,y,x
y,z,-x
-z,y,-x
z,-y,-x
loop_
_atom_site_label
_atom_site_type_symbol
_atom_site_fract_x
_atom_site_fract_y
_atom_site_fract_z
_atom_site_occupancy
_atom_site_U_iso_or_equiv
Mn1 Mn 0.5 0.5 0.5 1 0.0
Hg1 Hg 0 0 0 1 0.0
