#------------------------------------------------------------------------------
#$Date: 2015-07-10 22:01:18 +0300 (Fri, 10 Jul 2015) $
#$Revision: 143052 $
#$URL: svn://www.crystallography.net/cod/cif/1/52/27/1522773.cif $
#------------------------------------------------------------------------------
#
# This file is available in the Crystallography Open Database (COD),
# http://www.crystallography.net/
#
# All data on this site have been placed in the public domain by the
# contributors.
#
data_1522773
loop_
_publ_author_name
'Raub, E.'
'Beeskow, H.'
'Fritzsche, W.'
_publ_section_title
;
 Die Struktur der festen Tantal-Ruthenium Legierungen
;
_journal_name_full               'Zeitschrift fuer Metallkunde'
_journal_page_first              451
_journal_page_last               454
_journal_volume                  54
_journal_year                    1963
_chemical_formula_sum            'Ru0.8 Ta0.2'
_chemical_name_systematic        '(Ru0.8 Ta0.2)'
_space_group_IT_number           194
_symmetry_space_group_name_Hall  '-P 6c 2c'
_symmetry_space_group_name_H-M   'P 63/m m c'
_cell_angle_alpha                90
_cell_angle_beta                 90
_cell_angle_gamma                120
_cell_formula_units_Z            2
_cell_length_a                   2.737
_cell_length_b                   2.737
_cell_length_c                   4.379
_cell_volume                     28.409
_citation_journal_id_ASTM        ZEMTAE
_cod_data_source_file            Raub_ZEMTAE_1963_2000.cif
_cod_data_source_block           Ru0.8Ta0.2
_cod_original_cell_volume        28.40895
_cod_database_code               1522773
loop_
_symmetry_equiv_pos_as_xyz
x,y,z
x-y,x,z+1/2
-y,x-y,z
-x,-y,z+1/2
-x+y,-x,z
y,-x+y,z+1/2
-y,-x,-z+1/2
x-y,-y,-z
x,x-y,-z+1/2
y,x,-z
-x+y,y,-z+1/2
-x,-x+y,-z
-x,-y,-z
-x+y,-x,-z-1/2
y,-x+y,-z
x,y,-z-1/2
x-y,x,-z
-y,x-y,-z-1/2
y,x,z-1/2
-x+y,y,z
-x,-x+y,z-1/2
-y,-x,z
x-y,-y,z-1/2
x,x-y,z
loop_
_atom_site_label
_atom_site_type_symbol
_atom_site_fract_x
_atom_site_fract_y
_atom_site_fract_z
_atom_site_occupancy
_atom_site_U_iso_or_equiv
Ru1 Ru 0.3333 0.6667 0.25 0.801 0.0
Ta1 Ta 0.3333 0.6667 0.25 0.199 0.0
