#------------------------------------------------------------------------------
#$Date: 2015-07-10 16:30:34 +0300 (Fri, 10 Jul 2015) $
#$Revision: 142588 $
#$URL: svn://www.crystallography.net/cod/cif/1/52/23/1522366.cif $
#------------------------------------------------------------------------------
#
# This file is available in the Crystallography Open Database (COD),
# http://www.crystallography.net/
#
# All data on this site have been placed in the public domain by the
# contributors.
#
data_1522366
loop_
_publ_author_name
'Lemaire, R.'
'Paccard, D.'
_publ_section_title
;
 Structures cristallines des composes intermetalliques entre le nickel et
 les metaux de terres rares ou l'yttrium
;
_journal_name_full
;
Bulletin de la Societe Francaise de Mineralogie et de Cristallographie 
(72,1949-100,1977)
;
_journal_page_first              9
_journal_page_last               16
_journal_volume                  92
_journal_year                    1969
_chemical_formula_sum            'Gd2 Ni7'
_chemical_name_systematic        'Gd2 Ni7'
_space_group_IT_number           166
_symmetry_space_group_name_Hall  '-R 3 2"'
_symmetry_space_group_name_H-M   'R -3 m :H'
_cell_angle_alpha                90
_cell_angle_beta                 90
_cell_angle_gamma                120
_cell_formula_units_Z            6
_cell_length_a                   4.96
_cell_length_b                   4.96
_cell_length_c                   36.14
_cell_volume                     769.985
_citation_journal_id_ASTM        BUFCAE
_cod_data_source_file            Lemaire_BUFCAE_1969_457.cif
_cod_data_source_block           Gd2Ni7
_cod_original_cell_volume        769.9847
_cod_database_code               1522366
loop_
_symmetry_equiv_pos_as_xyz
x,y,z
-y,x-y,z
-x+y,-x,z
y,x,-z
-x,-x+y,-z
x-y,-y,-z
-x,-y,-z
y,-x+y,-z
x-y,x,-z
-y,-x,z
x,x-y,z
-x+y,y,z
x+2/3,y+1/3,z+1/3
-y+2/3,x-y+1/3,z+1/3
-x+y+2/3,-x+1/3,z+1/3
y+2/3,x+1/3,-z+1/3
-x+2/3,-x+y+1/3,-z+1/3
x-y+2/3,-y+1/3,-z+1/3
-x+2/3,-y+1/3,-z+1/3
y+2/3,-x+y+1/3,-z+1/3
x-y+2/3,x+1/3,-z+1/3
-y+2/3,-x+1/3,z+1/3
x+2/3,x-y+1/3,z+1/3
-x+y+2/3,y+1/3,z+1/3
x+1/3,y+2/3,z+2/3
-y+1/3,x-y+2/3,z+2/3
-x+y+1/3,-x+2/3,z+2/3
y+1/3,x+2/3,-z+2/3
-x+1/3,-x+y+2/3,-z+2/3
x-y+1/3,-y+2/3,-z+2/3
-x+1/3,-y+2/3,-z+2/3
y+1/3,-x+y+2/3,-z+2/3
x-y+1/3,x+2/3,-z+2/3
-y+1/3,-x+2/3,z+2/3
x+1/3,x-y+2/3,z+2/3
-x+y+1/3,y+2/3,z+2/3
loop_
_atom_site_label
_atom_site_type_symbol
_atom_site_fract_x
_atom_site_fract_y
_atom_site_fract_z
_atom_site_occupancy
_atom_site_U_iso_or_equiv
Ni5 Ni 0.5 0.5 0.111 1 0.0
Gd2 Gd 0 0 0.149 1 0.0
Ni3 Ni 0 0 0.388 1 0.0
Ni1 Ni 0 0 0.5 1 0.0
Ni4 Ni 0.5 0 0 1 0.0
Gd1 Gd 0 0 0.055 1 0.0
Ni2 Ni 0 0 0.278 1 0.0
