#------------------------------------------------------------------------------
#$Date: 2015-07-10 18:50:08 +0300 (Fri, 10 Jul 2015) $
#$Revision: 142720 $
#$URL: svn://www.crystallography.net/cod/cif/1/52/24/1522493.cif $
#------------------------------------------------------------------------------
#
# This file is available in the Crystallography Open Database (COD),
# http://www.crystallography.net/
#
# All data on this site have been placed in the public domain by the
# contributors.
#
data_1522493
loop_
_publ_author_name
'Mayer, H.W.'
'Schubert, K.'
'Ellner, M.'
_publ_section_title
;
 Crystal structure of Pd13 Pb9.r
;
_journal_name_full               'Journal of the Less-Common Metals'
_journal_page_first              29
_journal_page_last               38
_journal_volume                  71
_journal_year                    1980
_chemical_formula_sum            'Pb0.41 Pd0.59'
_chemical_name_systematic        '(Pb0.41 Pd0.59)'
_space_group_IT_number           194
_symmetry_space_group_name_Hall  '-P 6c 2c'
_symmetry_space_group_name_H-M   'P 63/m m c'
_cell_angle_alpha                90
_cell_angle_beta                 90
_cell_angle_gamma                120
_cell_formula_units_Z            4
_cell_length_a                   4.493
_cell_length_b                   4.493
_cell_length_c                   5.762
_cell_volume                     100.734
_citation_journal_id_ASTM        JCOMAH
_cod_data_source_file            Mayer_JCOMAH_1980_1676.cif
_cod_data_source_block           Pb0.41Pd0.59
_cod_original_cell_volume        100.7342
_cod_database_code               1522493
loop_
_symmetry_equiv_pos_as_xyz
x,y,z
x-y,x,z+1/2
-y,x-y,z
-x,-y,z+1/2
-x+y,-x,z
y,-x+y,z+1/2
-y,-x,-z+1/2
x-y,-y,-z
x,x-y,-z+1/2
y,x,-z
-x+y,y,-z+1/2
-x,-x+y,-z
-x,-y,-z
-x+y,-x,-z-1/2
y,-x+y,-z
x,y,-z-1/2
x-y,x,-z
-y,x-y,-z-1/2
y,x,z-1/2
-x+y,y,z
-x,-x+y,z-1/2
-y,-x,z
x-y,-y,z-1/2
x,x-y,z
loop_
_atom_site_label
_atom_site_type_symbol
_atom_site_fract_x
_atom_site_fract_y
_atom_site_fract_z
_atom_site_occupancy
_atom_site_U_iso_or_equiv
Pb2 Pb 0.3333 0.6667 0.25 0.41 0.0
Pd1 Pd 0 0 0 0.59 0.0
Pb1 Pb 0 0 0 0.41 0.0
Pd2 Pd 0.3333 0.6667 0.25 0.59 0.0
