#------------------------------------------------------------------------------
#$Date: 2016-02-13 21:28:24 +0200 (Sat, 13 Feb 2016) $
#$Revision: 176429 $
#$URL: svn://www.crystallography.net/cod/cif/1/52/29/1522927.cif $
#------------------------------------------------------------------------------
#
# This file is available in the Crystallography Open Database (COD),
# http://www.crystallography.net/
#
# All data on this site have been placed in the public domain by the
# contributors.
#
data_1522927
loop_
_publ_author_name
'Sodeck, H.'
'Mikler, H.'
'Komarek, K.L.'
_publ_section_title
;
 Transition metal-chalcogen systems. VI: The zirconium- tellurium phase
 diagram
;
_journal_name_full               'Monatshefte fuer Chemie (-108,1977)'
_journal_page_first              1
_journal_page_last               8
_journal_volume                  110
_journal_year                    1979
_chemical_formula_sum            'Te Zr'
_chemical_name_systematic        'Zr Te'
_space_group_IT_number           194
_symmetry_space_group_name_Hall  '-P 6c 2c'
_symmetry_space_group_name_H-M   'P 63/m m c'
_cell_angle_alpha                90
_cell_angle_beta                 90
_cell_angle_gamma                120
_cell_formula_units_Z            2
_cell_length_a                   3.962
_cell_length_b                   3.962
_cell_length_c                   6.693
_cell_volume                     90.987
_citation_journal_id_ASTM        MOCHAP
_cod_data_source_file            Sodeck_MOCHAP_1979_527.cif
_cod_data_source_block           Te1Zr1
_cod_original_cell_volume        90.98721
_cod_original_formula_sum        'Te1 Zr1'
_cod_database_code               1522927
loop_
_symmetry_equiv_pos_as_xyz
x,y,z
x-y,x,z+1/2
-y,x-y,z
-x,-y,z+1/2
-x+y,-x,z
y,-x+y,z+1/2
-y,-x,-z+1/2
x-y,-y,-z
x,x-y,-z+1/2
y,x,-z
-x+y,y,-z+1/2
-x,-x+y,-z
-x,-y,-z
-x+y,-x,-z-1/2
y,-x+y,-z
x,y,-z-1/2
x-y,x,-z
-y,x-y,-z-1/2
y,x,z-1/2
-x+y,y,z
-x,-x+y,z-1/2
-y,-x,z
x-y,-y,z-1/2
x,x-y,z
loop_
_atom_site_label
_atom_site_type_symbol
_atom_site_fract_x
_atom_site_fract_y
_atom_site_fract_z
_atom_site_occupancy
_atom_site_U_iso_or_equiv
Te1 Te 0.3333 0.6667 0.25 1 0.0
Zr1 Zr 0 0 0 1 0.0
