#------------------------------------------------------------------------------
#$Date: 2016-02-13 21:28:24 +0200 (Sat, 13 Feb 2016) $
#$Revision: 176429 $
#$URL: svn://www.crystallography.net/cod/cif/1/52/27/1522734.cif $
#------------------------------------------------------------------------------
#
# This file is available in the Crystallography Open Database (COD),
# http://www.crystallography.net/
#
# All data on this site have been placed in the public domain by the
# contributors.
#
data_1522734
loop_
_publ_author_name
'Pylaeva, E.N.'
'Gladyshevskii, E.I.'
'Kripyakevich, P.I.'
_publ_section_title
;
 Crystal structure of Ni3 Nb and Ni3 Ta compounds
;
_journal_name_full               'Zhurnal Neorganicheskoi Khimii'
_journal_page_first              1626
_journal_page_last               1631
_journal_volume                  3
_journal_year                    1958
_chemical_formula_sum            'Ni3 Ta'
_chemical_name_systematic        'Ni3 Ta'
_space_group_IT_number           59
_symmetry_space_group_name_Hall  'P 2 2ab -1ab'
_symmetry_space_group_name_H-M   'P m m n :1'
_cell_angle_alpha                90
_cell_angle_beta                 90
_cell_angle_gamma                90
_cell_formula_units_Z            2
_cell_length_a                   5.1
_cell_length_b                   4.24
_cell_length_c                   4.52
_cell_volume                     97.740
_citation_journal_id_ASTM        ZNOKAQ
_cod_data_source_file            Pylaeva_ZNOKAQ_1958_1521.cif
_cod_data_source_block           Ni3Ta1
_cod_original_cell_volume        97.74047
_cod_original_sg_symbol_Hall     '-P 2ab 2a (x-1/4,y-1/4,z)'
_cod_original_formula_sum        'Ni3 Ta1'
_cod_database_code               1522734
loop_
_symmetry_equiv_pos_as_xyz
x,y,z
-x,-y,z
x+1/2,-y+1/2,-z
-x+1/2,y+1/2,-z
-x+1/2,-y+1/2,-z
x+1/2,y+1/2,-z
-x,y,z
x,-y,z
loop_
_atom_site_label
_atom_site_type_symbol
_atom_site_fract_x
_atom_site_fract_y
_atom_site_fract_z
_atom_site_occupancy
_atom_site_U_iso_or_equiv
Ta1 Ta 0 0 0.667 1 0.0
Ni2 Ni 0.25 0 0.167 1 0.0
Ni1 Ni 0 0.5 0.333 1 0.0
