#------------------------------------------------------------------------------
#$Date: 2015-07-10 22:53:00 +0300 (Fri, 10 Jul 2015) $
#$Revision: 143236 $
#$URL: svn://www.crystallography.net/cod/cif/1/52/29/1522940.cif $
#------------------------------------------------------------------------------
#
# This file is available in the Crystallography Open Database (COD),
# http://www.crystallography.net/
#
# All data on this site have been placed in the public domain by the
# contributors.
#
data_1522940
loop_
_publ_author_name
'Speight, J.D.'
_publ_section_title
;
 Structure and magnetic properties of rapidly quenched samarium-type
 alloys
;
_journal_name_full               'Journal of the Less-Common Metals'
_journal_page_first              251
_journal_page_last               262
_journal_volume                  20
_journal_year                    1970
_chemical_formula_sum            'Gd0.5 Nd0.5'
_chemical_name_systematic        '(Gd0.5 Nd0.5)'
_space_group_IT_number           194
_symmetry_space_group_name_Hall  '-P 6c 2c'
_symmetry_space_group_name_H-M   'P 63/m m c'
_cell_angle_alpha                90
_cell_angle_beta                 90
_cell_angle_gamma                120
_cell_formula_units_Z            2
_cell_length_a                   3.66
_cell_length_b                   3.66
_cell_length_c                   5.856
_cell_volume                     67.935
_citation_journal_id_ASTM        JCOMAH
_cod_data_source_file            Speight_JCOMAH_1970_450.cif
_cod_data_source_block           Gd0.5Nd0.5
_cod_original_cell_volume        67.93505
_cod_database_code               1522940
loop_
_symmetry_equiv_pos_as_xyz
x,y,z
x-y,x,z+1/2
-y,x-y,z
-x,-y,z+1/2
-x+y,-x,z
y,-x+y,z+1/2
-y,-x,-z+1/2
x-y,-y,-z
x,x-y,-z+1/2
y,x,-z
-x+y,y,-z+1/2
-x,-x+y,-z
-x,-y,-z
-x+y,-x,-z-1/2
y,-x+y,-z
x,y,-z-1/2
x-y,x,-z
-y,x-y,-z-1/2
y,x,z-1/2
-x+y,y,z
-x,-x+y,z-1/2
-y,-x,z
x-y,-y,z-1/2
x,x-y,z
loop_
_atom_site_label
_atom_site_type_symbol
_atom_site_fract_x
_atom_site_fract_y
_atom_site_fract_z
_atom_site_occupancy
_atom_site_U_iso_or_equiv
Gd1 Gd 0.3333 0.6667 0.25 0.5 0.0
Nd1 Nd 0.3333 0.6667 0.25 0.5 0.0
