#------------------------------------------------------------------------------
#$Date: 2016-02-13 21:28:24 +0200 (Sat, 13 Feb 2016) $
#$Revision: 176429 $
#$URL: svn://www.crystallography.net/cod/cif/1/52/27/1522737.cif $
#------------------------------------------------------------------------------
#
# This file is available in the Crystallography Open Database (COD),
# http://www.crystallography.net/
#
# All data on this site have been placed in the public domain by the
# contributors.
#
data_1522737
loop_
_publ_author_name
'Rahlfs, P.'
_publ_section_title
;
 Die Kristallstruktur des Ni3 Sn (Mg3 Cd-Typ= Ueberstruktur der hexagonal
 dichtesten Kugelpackung)
;
_journal_name_full
'Metallwirtschaft, Metallwissenschaft, Metalltechnik'
_journal_page_first              343
_journal_page_last               345
_journal_volume                  16
_journal_year                    1937
_chemical_formula_sum            'Ni3 Sn'
_chemical_name_systematic        'Ni3 Sn'
_space_group_IT_number           194
_symmetry_space_group_name_Hall  '-P 6c 2c'
_symmetry_space_group_name_H-M   'P 63/m m c'
_cell_angle_alpha                90
_cell_angle_beta                 90
_cell_angle_gamma                120
_cell_formula_units_Z            2
_cell_length_a                   5.275
_cell_length_b                   5.275
_cell_length_c                   4.234
_cell_volume                     102.030
_citation_journal_id_ASTM        METWAH
_cod_data_source_file            Rahlfs_METWAH_1937_1493.cif
_cod_data_source_block           Ni3Sn1
_cod_original_cell_volume        102.0297
_cod_original_formula_sum        'Ni3 Sn1'
_cod_database_code               1522737
loop_
_symmetry_equiv_pos_as_xyz
x,y,z
x-y,x,z+1/2
-y,x-y,z
-x,-y,z+1/2
-x+y,-x,z
y,-x+y,z+1/2
-y,-x,-z+1/2
x-y,-y,-z
x,x-y,-z+1/2
y,x,-z
-x+y,y,-z+1/2
-x,-x+y,-z
-x,-y,-z
-x+y,-x,-z-1/2
y,-x+y,-z
x,y,-z-1/2
x-y,x,-z
-y,x-y,-z-1/2
y,x,z-1/2
-x+y,y,z
-x,-x+y,z-1/2
-y,-x,z
x-y,-y,z-1/2
x,x-y,z
loop_
_atom_site_label
_atom_site_type_symbol
_atom_site_fract_x
_atom_site_fract_y
_atom_site_fract_z
_atom_site_occupancy
_atom_site_U_iso_or_equiv
Sn1 Sn 0.3333 0.6667 0.25 1 0.0
Ni1 Ni 0.833 0.666 0.25 1 0.0
