#------------------------------------------------------------------------------
#$Date: 2016-02-13 21:28:24 +0200 (Sat, 13 Feb 2016) $
#$Revision: 176429 $
#$URL: svn://www.crystallography.net/cod/cif/1/52/29/1522977.cif $
#------------------------------------------------------------------------------
#
# This file is available in the Crystallography Open Database (COD),
# http://www.crystallography.net/
#
# All data on this site have been placed in the public domain by the
# contributors.
#
data_1522977
loop_
_publ_author_name
'Suzuki, Tomoo'
'Hagiwara, Masuo'
_publ_section_title
;
 CsCl-Type Order-Disorder Transition in \d-VMn Solid Solutions
;
_journal_coden_ASTM              TJIMAA
_journal_issue                   8
_journal_name_full
;
 Transactions of the Japan Institute of Metals
;
_journal_page_first              473
_journal_page_last               479
_journal_paper_doi               10.2320/matertrans1960.16.473
_journal_volume                  16
_journal_year                    1975
_chemical_formula_sum            'Mn V'
_chemical_name_systematic        'Mn V'
_space_group_IT_number           221
_symmetry_space_group_name_Hall  '-P 4 2 3'
_symmetry_space_group_name_H-M   'P m -3 m'
_cell_angle_alpha                90
_cell_angle_beta                 90
_cell_angle_gamma                90
_cell_formula_units_Z            1
_cell_length_a                   2.9
_cell_length_b                   2.9
_cell_length_c                   2.9
_cell_volume                     24.389
_citation_journal_id_ASTM        TJIMAA
_cod_data_source_file            Suzuki_TJIMAA_1975_1187.cif
_cod_data_source_block           Mn1V1
_cod_original_formula_sum        'Mn1 V1'
_cod_database_code               1522977
loop_
_symmetry_equiv_pos_as_xyz
x,y,z
-y,x,z
-x,-y,z
y,-x,z
x,-y,-z
y,x,-z
-x,y,-z
-y,-x,-z
z,x,y
-x,z,y
-z,-x,y
x,-z,y
z,-x,-y
x,z,-y
-z,x,-y
-x,-z,-y
y,z,x
y,-z,-x
z,y,-x
-y,z,-x
-z,-y,-x
-y,-z,x
z,-y,x
-z,y,x
-x,-y,-z
y,-x,-z
x,y,-z
-y,x,-z
-x,y,z
-y,-x,z
x,-y,z
y,x,z
-z,-x,-y
x,-z,-y
z,x,-y
-x,z,-y
-z,x,y
-x,-z,y
z,-x,y
x,z,y
-y,-z,-x
-y,z,x
-z,-y,x
y,-z,x
z,y,x
y,z,-x
-z,y,-x
z,-y,-x
loop_
_atom_site_label
_atom_site_type_symbol
_atom_site_fract_x
_atom_site_fract_y
_atom_site_fract_z
_atom_site_occupancy
_atom_site_U_iso_or_equiv
Mn1 Mn 0 0 0 1 0.0
V1 V 0.5 0.5 0.5 1 0.0
