#------------------------------------------------------------------------------
#$Date: 2016-02-13 21:28:24 +0200 (Sat, 13 Feb 2016) $
#$Revision: 176429 $
#$URL: svn://www.crystallography.net/cod/cif/1/52/29/1522921.cif $
#------------------------------------------------------------------------------
#
# This file is available in the Crystallography Open Database (COD),
# http://www.crystallography.net/
#
# All data on this site have been placed in the public domain by the
# contributors.
#
data_1522921
loop_
_publ_author_name
'Smith, J.F.'
'Bailey, D.M.'
'Novotny, D.B.'
'Davison, J.E.'
_publ_section_title
;
 Thermodynamics of formation of yttrium-magnesium intermediate phase
;
_journal_name_full               'Acta Metallurgica'
_journal_page_first              889
_journal_page_last               895
_journal_volume                  13
_journal_year                    1965
_chemical_formula_sum            'Mg Y'
_chemical_name_systematic        'Mg Y'
_space_group_IT_number           221
_symmetry_space_group_name_Hall  '-P 4 2 3'
_symmetry_space_group_name_H-M   'P m -3 m'
_cell_angle_alpha                90
_cell_angle_beta                 90
_cell_angle_gamma                90
_cell_formula_units_Z            1
_cell_length_a                   3.81
_cell_length_b                   3.81
_cell_length_c                   3.81
_cell_volume                     55.306
_citation_journal_id_ASTM        AMETAR
_cod_data_source_file            Smith_AMETAR_1965_1102.cif
_cod_data_source_block           Mg1Y1
_cod_original_cell_volume        55.30634
_cod_original_formula_sum        'Mg1 Y1'
_cod_database_code               1522921
loop_
_symmetry_equiv_pos_as_xyz
x,y,z
-y,x,z
-x,-y,z
y,-x,z
x,-y,-z
y,x,-z
-x,y,-z
-y,-x,-z
z,x,y
-x,z,y
-z,-x,y
x,-z,y
z,-x,-y
x,z,-y
-z,x,-y
-x,-z,-y
y,z,x
y,-z,-x
z,y,-x
-y,z,-x
-z,-y,-x
-y,-z,x
z,-y,x
-z,y,x
-x,-y,-z
y,-x,-z
x,y,-z
-y,x,-z
-x,y,z
-y,-x,z
x,-y,z
y,x,z
-z,-x,-y
x,-z,-y
z,x,-y
-x,z,-y
-z,x,y
-x,-z,y
z,-x,y
x,z,y
-y,-z,-x
-y,z,x
-z,-y,x
y,-z,x
z,y,x
y,z,-x
-z,y,-x
z,-y,-x
loop_
_atom_site_label
_atom_site_type_symbol
_atom_site_fract_x
_atom_site_fract_y
_atom_site_fract_z
_atom_site_occupancy
_atom_site_U_iso_or_equiv
Mg1 Mg 0 0 0 1 0.0
Y1 Y 0.5 0.5 0.5 1 0.0
