#------------------------------------------------------------------------------
#$Date: 2015-07-10 15:55:54 +0300 (Fri, 10 Jul 2015) $
#$Revision: 142489 $
#$URL: svn://www.crystallography.net/cod/cif/1/52/22/1522268.cif $
#------------------------------------------------------------------------------
#
# This file is available in the Crystallography Open Database (COD),
# http://www.crystallography.net/
#
# All data on this site have been placed in the public domain by the
# contributors.
#
data_1522268
loop_
_publ_author_name
'Kripyakevich, P.I.'
'Evdokimenko, V.I.'
'Gladyshevskii, E.I.'
_publ_section_title
;
 Compounds with the alpha-Mn superstructure in the rare earth-magnesium
 system
;
_journal_name_full               Kristallografiya
_journal_page_first              410
_journal_page_last               411
_journal_volume                  9
_journal_year                    1964
_chemical_formula_sum            'Mg24 Tm5'
_chemical_name_systematic        'Mg24 Tm5'
_space_group_IT_number           217
_symmetry_space_group_name_Hall  'I -4 2 3'
_symmetry_space_group_name_H-M   'I -4 3 m'
_cell_angle_alpha                90
_cell_angle_beta                 90
_cell_angle_gamma                90
_cell_formula_units_Z            2
_cell_length_a                   11.208
_cell_length_b                   11.208
_cell_length_c                   11.208
_cell_volume                     1407.941
_citation_journal_id_ASTM        KRISAJ
_cod_data_source_file            Kripyakevich_KRISAJ_1964_1101.cif
_cod_data_source_block           Mg24Tm5
_cod_database_code               1522268
loop_
_symmetry_equiv_pos_as_xyz
x,y,z
y,-x,-z
-x,-y,z
-y,x,-z
x,-y,-z
-y,-x,z
-x,y,-z
y,x,z
z,x,y
x,-z,-y
-z,-x,y
-x,z,-y
z,-x,-y
-x,-z,y
-z,x,-y
x,z,y
y,z,x
y,-z,-x
-z,-y,x
-y,z,-x
z,y,x
-y,-z,x
-z,y,-x
z,-y,-x
x+1/2,y+1/2,z+1/2
y+1/2,-x+1/2,-z+1/2
-x+1/2,-y+1/2,z+1/2
-y+1/2,x+1/2,-z+1/2
x+1/2,-y+1/2,-z+1/2
-y+1/2,-x+1/2,z+1/2
-x+1/2,y+1/2,-z+1/2
y+1/2,x+1/2,z+1/2
z+1/2,x+1/2,y+1/2
x+1/2,-z+1/2,-y+1/2
-z+1/2,-x+1/2,y+1/2
-x+1/2,z+1/2,-y+1/2
z+1/2,-x+1/2,-y+1/2
-x+1/2,-z+1/2,y+1/2
-z+1/2,x+1/2,-y+1/2
x+1/2,z+1/2,y+1/2
y+1/2,z+1/2,x+1/2
y+1/2,-z+1/2,-x+1/2
-z+1/2,-y+1/2,x+1/2
-y+1/2,z+1/2,-x+1/2
z+1/2,y+1/2,x+1/2
-y+1/2,-z+1/2,x+1/2
-z+1/2,y+1/2,-x+1/2
z+1/2,-y+1/2,-x+1/2
loop_
_atom_site_label
_atom_site_type_symbol
_atom_site_fract_x
_atom_site_fract_y
_atom_site_fract_z
_atom_site_occupancy
_atom_site_U_iso_or_equiv
Mg2 Mg 0.089 0.089 0.278 1 0.0
Tm2 Tm 0.317 0.317 0.317 1 0.0
Mg1 Mg 0.356 0.356 0.042 1 0.0
Tm1 Tm 0 0 0 1 0.0
