#------------------------------------------------------------------------------
#$Date: 2016-03-02 09:32:43 +0200 (Wed, 02 Mar 2016) $
#$Revision: 177121 $
#$URL: svn://www.crystallography.net/cod/cif/1/52/29/1522936.cif $
#------------------------------------------------------------------------------
#
# This file is available in the Crystallography Open Database (COD),
# http://www.crystallography.net/
#
# All data on this site have been placed in the public domain by the
# contributors.
#
data_1522936
loop_
_publ_author_name
'Spedding, F.H.'
'Valletta, R.M.'
'Daane, A.H.'
_publ_section_title
;
 Some rare-earth alloy systems. I. La-Gd, La-Y, Gd-Y
;
_journal_name_full
'Transactions of the American Society for Metals'
_journal_page_first              483
_journal_page_last               491
_journal_volume                  55
_journal_year                    1962
_chemical_formula_sum            'Gd Y'
_chemical_name_systematic        'Gd Y'
_space_group_IT_number           194
_symmetry_space_group_name_Hall  '-P 6c 2c'
_symmetry_space_group_name_H-M   'P 63/m m c'
_cell_angle_alpha                90
_cell_angle_beta                 90
_cell_angle_gamma                120
_cell_formula_units_Z            1
_cell_length_a                   3.6414
_cell_length_b                   3.6414
_cell_length_c                   5.76
_cell_volume                     66.144
_citation_journal_id_ASTM        TASEA7
_cod_data_source_file            Spedding_TASEA7_1962_497.cif
_cod_data_source_block           Gd1Y1
_cod_original_cell_volume        66.14392
_cod_original_formula_sum        'Gd1 Y1'
_cod_database_code               1522936
loop_
_symmetry_equiv_pos_as_xyz
x,y,z
x-y,x,z+1/2
-y,x-y,z
-x,-y,z+1/2
-x+y,-x,z
y,-x+y,z+1/2
-y,-x,-z+1/2
x-y,-y,-z
x,x-y,-z+1/2
y,x,-z
-x+y,y,-z+1/2
-x,-x+y,-z
-x,-y,-z
-x+y,-x,-z-1/2
y,-x+y,-z
x,y,-z-1/2
x-y,x,-z
-y,x-y,-z-1/2
y,x,z-1/2
-x+y,y,z
-x,-x+y,z-1/2
-y,-x,z
x-y,-y,z-1/2
x,x-y,z
loop_
_atom_site_label
_atom_site_type_symbol
_atom_site_fract_x
_atom_site_fract_y
_atom_site_fract_z
_atom_site_occupancy
_atom_site_U_iso_or_equiv
Gd1 Gd 0.3333 0.6667 0.25 0.5 0.0
Y1 Y 0.3333 0.6667 0.25 0.5 0.0
