#------------------------------------------------------------------------------
#$Date: 2015-07-10 16:38:04 +0300 (Fri, 10 Jul 2015) $
#$Revision: 142624 $
#$URL: svn://www.crystallography.net/cod/cif/1/52/24/1522401.cif $
#------------------------------------------------------------------------------
#
# This file is available in the Crystallography Open Database (COD),
# http://www.crystallography.net/
#
# All data on this site have been placed in the public domain by the
# contributors.
#
data_1522401
loop_
_publ_author_name
'Lundin, C.E.'
_publ_section_title
;
 A study of the samarium-type sructue in binary intra rare earth compounds
;
_journal_name_full
;
Colloques Internationaux du Centre National de la Recherche Scientifique
;
_journal_page_first              151
_journal_page_last               157
_journal_volume                  180
_journal_year                    1970
_chemical_formula_sum            'Gd0.8 La0.2'
_chemical_name_systematic        '(Gd0.8 La0.2)'
_space_group_IT_number           194
_symmetry_space_group_name_Hall  '-P 6c 2c'
_symmetry_space_group_name_H-M   'P 63/m m c'
_cell_angle_alpha                90
_cell_angle_beta                 90
_cell_angle_gamma                120
_cell_formula_units_Z            2
_cell_length_a                   3.6534
_cell_length_b                   3.6534
_cell_length_c                   5.8326
_cell_volume                     67.420
_citation_journal_id_ASTM        COINAV
_cod_data_source_file            Lundin_COINAV_1970_433.cif
_cod_data_source_block           Gd0.8La0.2
_cod_original_cell_volume        67.41977
_cod_database_code               1522401
loop_
_symmetry_equiv_pos_as_xyz
x,y,z
x-y,x,z+1/2
-y,x-y,z
-x,-y,z+1/2
-x+y,-x,z
y,-x+y,z+1/2
-y,-x,-z+1/2
x-y,-y,-z
x,x-y,-z+1/2
y,x,-z
-x+y,y,-z+1/2
-x,-x+y,-z
-x,-y,-z
-x+y,-x,-z-1/2
y,-x+y,-z
x,y,-z-1/2
x-y,x,-z
-y,x-y,-z-1/2
y,x,z-1/2
-x+y,y,z
-x,-x+y,z-1/2
-y,-x,z
x-y,-y,z-1/2
x,x-y,z
loop_
_atom_site_label
_atom_site_type_symbol
_atom_site_fract_x
_atom_site_fract_y
_atom_site_fract_z
_atom_site_occupancy
_atom_site_U_iso_or_equiv
La1 La 0.3333 0.6667 0.25 0.2 0.0
Gd1 Gd 0.3333 0.6667 0.25 0.8 0.0
