#------------------------------------------------------------------------------
#$Date: 2016-02-13 21:28:24 +0200 (Sat, 13 Feb 2016) $
#$Revision: 176429 $
#$URL: svn://www.crystallography.net/cod/cif/1/52/28/1522813.cif $
#------------------------------------------------------------------------------
#
# This file is available in the Crystallography Open Database (COD),
# http://www.crystallography.net/
#
# All data on this site have been placed in the public domain by the
# contributors.
#
data_1522813
loop_
_publ_author_name
'Runnalls, O.J.C.'
_publ_section_title
;
 The crystal structures of some intermetallic compounds of plutonium
;
_journal_name_full               'Canadian Journal of Chemistry'
_journal_page_first              133
_journal_page_last               145
_journal_volume                  34
_journal_year                    1956
_chemical_formula_sum            'Ni5 Pu'
_chemical_name_systematic        'Ni5 Pu'
_space_group_IT_number           191
_symmetry_space_group_name_Hall  '-P 6 2'
_symmetry_space_group_name_H-M   'P 6/m m m'
_cell_angle_alpha                90
_cell_angle_beta                 90
_cell_angle_gamma                120
_cell_formula_units_Z            1
_cell_length_a                   4.875
_cell_length_b                   4.875
_cell_length_c                   3.97
_cell_volume                     81.709
_citation_journal_id_ASTM        CJCHAG
_cod_data_source_file            Runnalls_CJCHAG_1956_1466.cif
_cod_data_source_block           Ni5Pu1
_cod_original_cell_volume        81.70909
_cod_original_formula_sum        'Ni5 Pu1'
_cod_database_code               1522813
loop_
_symmetry_equiv_pos_as_xyz
x,y,z
x-y,x,z
-y,x-y,z
-x,-y,z
-x+y,-x,z
y,-x+y,z
-y,-x,-z
x-y,-y,-z
x,x-y,-z
y,x,-z
-x+y,y,-z
-x,-x+y,-z
-x,-y,-z
-x+y,-x,-z
y,-x+y,-z
x,y,-z
x-y,x,-z
-y,x-y,-z
y,x,z
-x+y,y,z
-x,-x+y,z
-y,-x,z
x-y,-y,z
x,x-y,z
loop_
_atom_site_label
_atom_site_type_symbol
_atom_site_fract_x
_atom_site_fract_y
_atom_site_fract_z
_atom_site_occupancy
_atom_site_U_iso_or_equiv
Ni2 Ni 0.5 0 0.5 1 0.0
Pu1 Pu 0 0 0 1 0.0
Ni1 Ni 0.3333 0.6667 0 1 0.0
