#------------------------------------------------------------------------------
#$Date: 2015-07-10 19:14:50 +0300 (Fri, 10 Jul 2015) $
#$Revision: 142870 $
#$URL: svn://www.crystallography.net/cod/cif/1/52/26/1522609.cif $
#------------------------------------------------------------------------------
#
# This file is available in the Crystallography Open Database (COD),
# http://www.crystallography.net/
#
# All data on this site have been placed in the public domain by the
# contributors.
#
data_1522609
loop_
_publ_author_name
'Nowotny, H.'
'Schachner, H.'
_publ_section_title
;
 Roentgnographische Untersuchungen in den Systemen: Zirkonium Zinn und
 Zirkonium-Blei
;
_journal_name_full               'Monatshefte fuer Chemie (-108,1977)'
_journal_page_first              169
_journal_page_last               180
_journal_volume                  84
_journal_year                    1953
_chemical_formula_sum            'Pb3 Zr5'
_chemical_name_systematic        'Pb3 Zr5'
_space_group_IT_number           193
_symmetry_space_group_name_Hall  '-P 6c 2'
_symmetry_space_group_name_H-M   'P 63/m c m'
_cell_angle_alpha                90
_cell_angle_beta                 90
_cell_angle_gamma                120
_cell_formula_units_Z            2
_cell_length_a                   8.529
_cell_length_b                   8.529
_cell_length_c                   5.852
_cell_volume                     368.664
_citation_journal_id_ASTM        MOCHAP
_cod_data_source_file            Nowotny_MOCHAP_1953_1721.cif
_cod_data_source_block           Pb3Zr5
_cod_original_cell_volume        368.6644
_cod_database_code               1522609
loop_
_symmetry_equiv_pos_as_xyz
x,y,z
x-y,x,z+1/2
-y,x-y,z
-x,-y,z+1/2
-x+y,-x,z
y,-x+y,z+1/2
-y,-x,-z
x-y,-y,-z+1/2
x,x-y,-z
y,x,-z+1/2
-x+y,y,-z
-x,-x+y,-z+1/2
-x,-y,-z
-x+y,-x,-z-1/2
y,-x+y,-z
x,y,-z-1/2
x-y,x,-z
-y,x-y,-z-1/2
y,x,z
-x+y,y,z-1/2
-x,-x+y,z
-y,-x,z-1/2
x-y,-y,z
x,x-y,z-1/2
loop_
_atom_site_label
_atom_site_type_symbol
_atom_site_fract_x
_atom_site_fract_y
_atom_site_fract_z
_atom_site_occupancy
_atom_site_U_iso_or_equiv
Zr2 Zr 0.25 0 0.25 1 0.0
Zr1 Zr 0.3333 0.6667 0 1 0.0
Pb1 Pb 0.61 0 0.25 1 0.0
