#------------------------------------------------------------------------------
#$Date: 2016-02-13 21:28:24 +0200 (Sat, 13 Feb 2016) $
#$Revision: 176429 $
#$URL: svn://www.crystallography.net/cod/cif/1/52/26/1522649.cif $
#------------------------------------------------------------------------------
#
# This file is available in the Crystallography Open Database (COD),
# http://www.crystallography.net/
#
# All data on this site have been placed in the public domain by the
# contributors.
#
data_1522649
loop_
_publ_author_name
'Palenzona, A.'
_publ_section_title
;
 The cystal structure and lattice constants of RE2 In and some RE5 In3
 compounds
;
_journal_name_full               'Journal of the Less-Common Metals'
_journal_page_first              379
_journal_page_last               384
_journal_volume                  16
_journal_year                    1968
_chemical_formula_sum            'Gd2 In'
_chemical_name_systematic        'Gd2 In'
_space_group_IT_number           194
_symmetry_space_group_name_Hall  '-P 6c 2c'
_symmetry_space_group_name_H-M   'P 63/m m c'
_cell_angle_alpha                90
_cell_angle_beta                 90
_cell_angle_gamma                120
_cell_formula_units_Z            2
_cell_length_a                   5.413
_cell_length_b                   5.413
_cell_length_c                   6.756
_cell_volume                     171.434
_citation_journal_id_ASTM        JCOMAH
_cod_data_source_file            Palenzona_JCOMAH_1968_425.cif
_cod_data_source_block           Gd2In1
_cod_original_cell_volume        171.4338
_cod_original_formula_sum        'Gd2 In1'
_cod_database_code               1522649
loop_
_symmetry_equiv_pos_as_xyz
x,y,z
x-y,x,z+1/2
-y,x-y,z
-x,-y,z+1/2
-x+y,-x,z
y,-x+y,z+1/2
-y,-x,-z+1/2
x-y,-y,-z
x,x-y,-z+1/2
y,x,-z
-x+y,y,-z+1/2
-x,-x+y,-z
-x,-y,-z
-x+y,-x,-z-1/2
y,-x+y,-z
x,y,-z-1/2
x-y,x,-z
-y,x-y,-z-1/2
y,x,z-1/2
-x+y,y,z
-x,-x+y,z-1/2
-y,-x,z
x-y,-y,z-1/2
x,x-y,z
loop_
_atom_site_label
_atom_site_type_symbol
_atom_site_fract_x
_atom_site_fract_y
_atom_site_fract_z
_atom_site_occupancy
_atom_site_U_iso_or_equiv
In1 In 0.3333 0.6667 0.25 1 0.0
Gd2 Gd 0.3333 0.6667 0.75 1 0.0
Gd1 Gd 0 0 0 1 0.0
