#------------------------------------------------------------------------------
#$Date: 2015-07-10 22:58:17 +0300 (Fri, 10 Jul 2015) $
#$Revision: 143259 $
#$URL: svn://www.crystallography.net/cod/cif/1/52/29/1522955.cif $
#------------------------------------------------------------------------------
#
# This file is available in the Crystallography Open Database (COD),
# http://www.crystallography.net/
#
# All data on this site have been placed in the public domain by the
# contributors.
#
data_1522955
loop_
_publ_author_name
'Stevens, E.R.'
'Carlson, O.N.'
_publ_section_title
;
 V-Ni system
;
_journal_name_full               'Metallurgical Transactions'
_journal_page_first              1267
_journal_page_last               1271
_journal_volume                  1
_journal_year                    1970
_chemical_formula_sum            'Ni0.97 V3.03'
_chemical_name_systematic        'Ni0.97 V3.03'
_space_group_IT_number           223
_symmetry_space_group_name_Hall  '-P 4n 2 3'
_symmetry_space_group_name_H-M   'P m -3 n'
_cell_angle_alpha                90
_cell_angle_beta                 90
_cell_angle_gamma                90
_cell_formula_units_Z            2
_cell_length_a                   4.7064
_cell_length_b                   4.7064
_cell_length_c                   4.7064
_cell_volume                     104.248
_citation_journal_id_ASTM        MTGTBF
_cod_data_source_file            Stevens_MTGTBF_1970_1561.cif
_cod_data_source_block           Ni0.97V3.03
_cod_original_cell_volume        104.2477
_cod_database_code               1522955
loop_
_symmetry_equiv_pos_as_xyz
x,y,z
-y+1/2,x+1/2,z+1/2
-x,-y,z
y+1/2,-x+1/2,z+1/2
x,-y,-z
y+1/2,x+1/2,-z+1/2
-x,y,-z
-y+1/2,-x+1/2,-z+1/2
z,x,y
-x+1/2,z+1/2,y+1/2
-z,-x,y
x+1/2,-z+1/2,y+1/2
z,-x,-y
x+1/2,z+1/2,-y+1/2
-z,x,-y
-x+1/2,-z+1/2,-y+1/2
y,z,x
y,-z,-x
z+1/2,y+1/2,-x+1/2
-y,z,-x
-z+1/2,-y+1/2,-x+1/2
-y,-z,x
z+1/2,-y+1/2,x+1/2
-z+1/2,y+1/2,x+1/2
-x,-y,-z
y-1/2,-x-1/2,-z-1/2
x,y,-z
-y-1/2,x-1/2,-z-1/2
-x,y,z
-y-1/2,-x-1/2,z-1/2
x,-y,z
y-1/2,x-1/2,z-1/2
-z,-x,-y
x-1/2,-z-1/2,-y-1/2
z,x,-y
-x-1/2,z-1/2,-y-1/2
-z,x,y
-x-1/2,-z-1/2,y-1/2
z,-x,y
x-1/2,z-1/2,y-1/2
-y,-z,-x
-y,z,x
-z-1/2,-y-1/2,x-1/2
y,-z,x
z-1/2,y-1/2,x-1/2
y,z,-x
-z-1/2,y-1/2,-x-1/2
z-1/2,-y-1/2,-x-1/2
loop_
_atom_site_label
_atom_site_type_symbol
_atom_site_fract_x
_atom_site_fract_y
_atom_site_fract_z
_atom_site_occupancy
_atom_site_U_iso_or_equiv
V1 V 0 0 0 0.03 0.0
V2 V 0.25 0 0.5 1 0.0
Ni1 Ni 0 0 0 0.97 0.0
