#------------------------------------------------------------------------------
#$Date: 2016-02-13 21:28:24 +0200 (Sat, 13 Feb 2016) $
#$Revision: 176429 $
#$URL: svn://www.crystallography.net/cod/cif/1/52/25/1522518.cif $
#------------------------------------------------------------------------------
#
# This file is available in the Crystallography Open Database (COD),
# http://www.crystallography.net/
#
# All data on this site have been placed in the public domain by the
# contributors.
#
data_1522518
loop_
_publ_author_name
'Michell, A.W.'
'Lam, D.J.'
_publ_section_title
;
 Crystal structures of intermediate phases in several neptunium binary
 alloys
;
_journal_name_full               'Journal of Nuclear Materials'
_journal_page_first              125
_journal_page_last               127
_journal_volume                  52
_journal_year                    1974
_chemical_formula_sum            'Np Sn3'
_chemical_name_systematic        'Np Sn3'
_space_group_IT_number           221
_symmetry_space_group_name_Hall  '-P 4 2 3'
_symmetry_space_group_name_H-M   'P m -3 m'
_cell_angle_alpha                90
_cell_angle_beta                 90
_cell_angle_gamma                90
_cell_formula_units_Z            1
_cell_length_a                   4.627
_cell_length_b                   4.627
_cell_length_c                   4.627
_cell_volume                     99.060
_citation_journal_id_ASTM        JNUMAM
_cod_data_source_file            Michell_JNUMAM_1974_1601.cif
_cod_data_source_block           Np1Sn3
_cod_original_cell_volume        99.06003
_cod_original_formula_sum        'Np1 Sn3'
_cod_database_code               1522518
loop_
_symmetry_equiv_pos_as_xyz
x,y,z
-y,x,z
-x,-y,z
y,-x,z
x,-y,-z
y,x,-z
-x,y,-z
-y,-x,-z
z,x,y
-x,z,y
-z,-x,y
x,-z,y
z,-x,-y
x,z,-y
-z,x,-y
-x,-z,-y
y,z,x
y,-z,-x
z,y,-x
-y,z,-x
-z,-y,-x
-y,-z,x
z,-y,x
-z,y,x
-x,-y,-z
y,-x,-z
x,y,-z
-y,x,-z
-x,y,z
-y,-x,z
x,-y,z
y,x,z
-z,-x,-y
x,-z,-y
z,x,-y
-x,z,-y
-z,x,y
-x,-z,y
z,-x,y
x,z,y
-y,-z,-x
-y,z,x
-z,-y,x
y,-z,x
z,y,x
y,z,-x
-z,y,-x
z,-y,-x
loop_
_atom_site_label
_atom_site_type_symbol
_atom_site_fract_x
_atom_site_fract_y
_atom_site_fract_z
_atom_site_occupancy
_atom_site_U_iso_or_equiv
Np1 Np 0 0 0 1 0.0
Sn1 Sn 0 0.5 0.5 1 0.0
