#------------------------------------------------------------------------------
#$Date: 2015-07-10 19:34:50 +0300 (Fri, 10 Jul 2015) $
#$Revision: 142989 $
#$URL: svn://www.crystallography.net/cod/cif/1/52/27/1522719.cif $
#------------------------------------------------------------------------------
#
# This file is available in the Crystallography Open Database (COD),
# http://www.crystallography.net/
#
# All data on this site have been placed in the public domain by the
# contributors.
#
data_1522719
loop_
_publ_author_name
'Popova, S.V.'
'Putro, V.G.'
_publ_section_title
;
 Crystal structure of alloys of the system Ta-Ga obtained at high pressure
;
_journal_name_full
'Izvestiya Akademii Nauk SSSR, Neorganicheskie Materialy'
_journal_page_first              1210
_journal_page_last               1213
_journal_volume                  15
_journal_year                    1979
_chemical_formula_sum            'Ga3 Ta5'
_chemical_name_systematic        'Ga3 Ta5'
_space_group_IT_number           193
_symmetry_space_group_name_Hall  '-P 6c 2'
_symmetry_space_group_name_H-M   'P 63/m c m'
_cell_angle_alpha                90
_cell_angle_beta                 90
_cell_angle_gamma                120
_cell_formula_units_Z            2
_cell_length_a                   7.681
_cell_length_b                   7.681
_cell_length_c                   5.28
_cell_volume                     269.774
_citation_journal_id_ASTM        IVNMAW
_cod_data_source_file            Popova_IVNMAW_1979_364.cif
_cod_data_source_block           Ga3Ta5
_cod_database_code               1522719
loop_
_symmetry_equiv_pos_as_xyz
x,y,z
x-y,x,z+1/2
-y,x-y,z
-x,-y,z+1/2
-x+y,-x,z
y,-x+y,z+1/2
-y,-x,-z
x-y,-y,-z+1/2
x,x-y,-z
y,x,-z+1/2
-x+y,y,-z
-x,-x+y,-z+1/2
-x,-y,-z
-x+y,-x,-z-1/2
y,-x+y,-z
x,y,-z-1/2
x-y,x,-z
-y,x-y,-z-1/2
y,x,z
-x+y,y,z-1/2
-x,-x+y,z
-y,-x,z-1/2
x-y,-y,z
x,x-y,z-1/2
loop_
_atom_site_label
_atom_site_type_symbol
_atom_site_fract_x
_atom_site_fract_y
_atom_site_fract_z
_atom_site_occupancy
_atom_site_U_iso_or_equiv
Ga1 Ga 0.61 0 0.25 1 0.0
Ta1 Ta 0.3333 0.6667 0 1 0.0
Ta2 Ta 0.23 0 0.25 1 0.0
