#------------------------------------------------------------------------------
#$Date: 2015-07-10 18:44:41 +0300 (Fri, 10 Jul 2015) $
#$Revision: 142701 $
#$URL: svn://www.crystallography.net/cod/cif/1/52/24/1522476.cif $
#------------------------------------------------------------------------------
#
# This file is available in the Crystallography Open Database (COD),
# http://www.crystallography.net/
#
# All data on this site have been placed in the public domain by the
# contributors.
#
data_1522476
loop_
_publ_author_name
'Marples, J.A.C.'
_publ_section_title
;
 The plutonium-zirconium phase diagram
;
_journal_name_full               'Journal of the Less-Common Metals'
_journal_page_first              331
_journal_page_last               351
_journal_volume                  2
_journal_year                    1960
_chemical_formula_sum            'Pu0.1 Zr0.9'
_chemical_name_systematic        '(Pu0.1 Zr0.9)'
_space_group_IT_number           194
_symmetry_space_group_name_Hall  '-P 6c 2c'
_symmetry_space_group_name_H-M   'P 63/m m c'
_cell_angle_alpha                90
_cell_angle_beta                 90
_cell_angle_gamma                120
_cell_formula_units_Z            2
_cell_length_a                   3.234
_cell_length_b                   3.234
_cell_length_c                   5.186
_cell_volume                     46.972
_citation_journal_id_ASTM        JCOMAH
_cod_data_source_file            Marples_JCOMAH_1960_1912.cif
_cod_data_source_block           Pu0.1Zr0.9
_cod_original_cell_volume        46.97244
_cod_database_code               1522476
loop_
_symmetry_equiv_pos_as_xyz
x,y,z
x-y,x,z+1/2
-y,x-y,z
-x,-y,z+1/2
-x+y,-x,z
y,-x+y,z+1/2
-y,-x,-z+1/2
x-y,-y,-z
x,x-y,-z+1/2
y,x,-z
-x+y,y,-z+1/2
-x,-x+y,-z
-x,-y,-z
-x+y,-x,-z-1/2
y,-x+y,-z
x,y,-z-1/2
x-y,x,-z
-y,x-y,-z-1/2
y,x,z-1/2
-x+y,y,z
-x,-x+y,z-1/2
-y,-x,z
x-y,-y,z-1/2
x,x-y,z
loop_
_atom_site_label
_atom_site_type_symbol
_atom_site_fract_x
_atom_site_fract_y
_atom_site_fract_z
_atom_site_occupancy
_atom_site_U_iso_or_equiv
Pu1 Pu 0.3333 0.6667 0.25 0.1 0.0
Zr1 Zr 0.3333 0.6667 0.25 0.9 0.0
