#------------------------------------------------------------------------------
#$Date: 2016-02-13 21:28:24 +0200 (Sat, 13 Feb 2016) $
#$Revision: 176429 $
#$URL: svn://www.crystallography.net/cod/cif/1/52/22/1522222.cif $
#------------------------------------------------------------------------------
#
# This file is available in the Crystallography Open Database (COD),
# http://www.crystallography.net/
#
# All data on this site have been placed in the public domain by the
# contributors.
#
data_1522222
loop_
_publ_author_name
'Kripyakevich, P.I.'
'Gladyshevskii, E.I.'
_publ_section_title
;
 The compounds Eu Ni5, Tm Ni5 and Lu Ni5 and their crystal structures
;
_journal_name_full               'Dopovidi Akademii Nauk Ukrains'koi RSR'
_journal_page_first              769
_journal_page_last               771
_journal_volume                  1966
_journal_year                    1966
_chemical_formula_sum            'Lu Ni5'
_chemical_name_systematic        'Lu Ni5'
_space_group_IT_number           191
_symmetry_space_group_name_Hall  '-P 6 2'
_symmetry_space_group_name_H-M   'P 6/m m m'
_cell_angle_alpha                90
_cell_angle_beta                 90
_cell_angle_gamma                120
_cell_formula_units_Z            1
_cell_length_a                   4.834
_cell_length_b                   4.834
_cell_length_c                   3.969
_cell_volume                     80.320
_citation_journal_id_ASTM        DUKRA4
_cod_data_source_file            Kripyakevich_DUKRA4_1966_1027.cif
_cod_data_source_block           Lu1Ni5
_cod_original_cell_volume        80.32025
_cod_original_formula_sum        'Lu1 Ni5'
_cod_database_code               1522222
loop_
_symmetry_equiv_pos_as_xyz
x,y,z
x-y,x,z
-y,x-y,z
-x,-y,z
-x+y,-x,z
y,-x+y,z
-y,-x,-z
x-y,-y,-z
x,x-y,-z
y,x,-z
-x+y,y,-z
-x,-x+y,-z
-x,-y,-z
-x+y,-x,-z
y,-x+y,-z
x,y,-z
x-y,x,-z
-y,x-y,-z
y,x,z
-x+y,y,z
-x,-x+y,z
-y,-x,z
x-y,-y,z
x,x-y,z
loop_
_atom_site_label
_atom_site_type_symbol
_atom_site_fract_x
_atom_site_fract_y
_atom_site_fract_z
_atom_site_occupancy
_atom_site_U_iso_or_equiv
Lu1 Lu 0 0 0 1 0.0
Ni2 Ni 0.5 0 0.5 1 0.0
Ni1 Ni 0.3333 0.6667 0 1 0.0
