#------------------------------------------------------------------------------
#$Date: 2016-02-13 21:28:24 +0200 (Sat, 13 Feb 2016) $
#$Revision: 176429 $
#$URL: svn://www.crystallography.net/cod/cif/1/52/26/1522657.cif $
#------------------------------------------------------------------------------
#
# This file is available in the Crystallography Open Database (COD),
# http://www.crystallography.net/
#
# All data on this site have been placed in the public domain by the
# contributors.
#
data_1522657
loop_
_publ_author_name
'Palenzona, A.'
_publ_section_title
;
 Th2 Hg: another representative of the Cu Al2-type structure
;
_journal_name_full               'Journal of the Less-Common Metals'
_journal_page_first              5
_journal_page_last               6
_journal_volume                  125
_journal_year                    1986
_chemical_formula_sum            'Hg3 Th'
_chemical_name_systematic        'Hg3 Th'
_space_group_IT_number           194
_symmetry_space_group_name_Hall  '-P 6c 2c'
_symmetry_space_group_name_H-M   'P 63/m m c'
_cell_angle_alpha                90
_cell_angle_beta                 90
_cell_angle_gamma                120
_cell_formula_units_Z            2
_cell_length_a                   6.716
_cell_length_b                   6.716
_cell_length_c                   4.902
_cell_volume                     191.481
_citation_journal_id_ASTM        JCOMAH
_cod_data_source_file            Palenzona_JCOMAH_1986_672.cif
_cod_data_source_block           Hg3Th1
_cod_original_cell_volume        191.4808
_cod_original_formula_sum        'Hg3 Th1'
_cod_database_code               1522657
loop_
_symmetry_equiv_pos_as_xyz
x,y,z
x-y,x,z+1/2
-y,x-y,z
-x,-y,z+1/2
-x+y,-x,z
y,-x+y,z+1/2
-y,-x,-z+1/2
x-y,-y,-z
x,x-y,-z+1/2
y,x,-z
-x+y,y,-z+1/2
-x,-x+y,-z
-x,-y,-z
-x+y,-x,-z-1/2
y,-x+y,-z
x,y,-z-1/2
x-y,x,-z
-y,x-y,-z-1/2
y,x,z-1/2
-x+y,y,z
-x,-x+y,z-1/2
-y,-x,z
x-y,-y,z-1/2
x,x-y,z
loop_
_atom_site_label
_atom_site_type_symbol
_atom_site_fract_x
_atom_site_fract_y
_atom_site_fract_z
_atom_site_occupancy
_atom_site_U_iso_or_equiv
Hg1 Hg 0.833 0.666 0.25 1 0.0
Th1 Th 0.3333 0.6667 0.25 1 0.0
