#------------------------------------------------------------------------------
#$Date: 2015-07-10 18:46:40 +0300 (Fri, 10 Jul 2015) $
#$Revision: 142707 $
#$URL: svn://www.crystallography.net/cod/cif/1/52/24/1522482.cif $
#------------------------------------------------------------------------------
#
# This file is available in the Crystallography Open Database (COD),
# http://www.crystallography.net/
#
# All data on this site have been placed in the public domain by the
# contributors.
#
data_1522482
loop_
_publ_author_name
'Marples, J.A.C.'
'Koch, C.C.'
_publ_section_title
;
 A low temperature X-ray investigation of technetium and the Tc-Mo A15
 compound
;
_journal_name_full               'Physics Letters A'
_journal_page_first              307
_journal_page_last               308
_journal_volume                  41
_journal_year                    1972
_chemical_formula_sum            'Mo0.4 Tc0.6'
_chemical_name_systematic        '(Mo0.4 Tc0.6)'
_space_group_IT_number           223
_symmetry_space_group_name_Hall  '-P 4n 2 3'
_symmetry_space_group_name_H-M   'P m -3 n'
_cell_angle_alpha                90
_cell_angle_beta                 90
_cell_angle_gamma                90
_cell_formula_units_Z            8
_cell_length_a                   4.935
_cell_length_b                   4.935
_cell_length_c                   4.935
_cell_volume                     120.188
_citation_journal_id_ASTM        PYLAAG
_cod_data_source_file            Marples_PYLAAG_1972_1289.cif
_cod_data_source_block           Mo0.4Tc0.6
_cod_original_cell_volume        120.1881
_cod_database_code               1522482
loop_
_symmetry_equiv_pos_as_xyz
x,y,z
-y+1/2,x+1/2,z+1/2
-x,-y,z
y+1/2,-x+1/2,z+1/2
x,-y,-z
y+1/2,x+1/2,-z+1/2
-x,y,-z
-y+1/2,-x+1/2,-z+1/2
z,x,y
-x+1/2,z+1/2,y+1/2
-z,-x,y
x+1/2,-z+1/2,y+1/2
z,-x,-y
x+1/2,z+1/2,-y+1/2
-z,x,-y
-x+1/2,-z+1/2,-y+1/2
y,z,x
y,-z,-x
z+1/2,y+1/2,-x+1/2
-y,z,-x
-z+1/2,-y+1/2,-x+1/2
-y,-z,x
z+1/2,-y+1/2,x+1/2
-z+1/2,y+1/2,x+1/2
-x,-y,-z
y-1/2,-x-1/2,-z-1/2
x,y,-z
-y-1/2,x-1/2,-z-1/2
-x,y,z
-y-1/2,-x-1/2,z-1/2
x,-y,z
y-1/2,x-1/2,z-1/2
-z,-x,-y
x-1/2,-z-1/2,-y-1/2
z,x,-y
-x-1/2,z-1/2,-y-1/2
-z,x,y
-x-1/2,-z-1/2,y-1/2
z,-x,y
x-1/2,z-1/2,y-1/2
-y,-z,-x
-y,z,x
-z-1/2,-y-1/2,x-1/2
y,-z,x
z-1/2,y-1/2,x-1/2
y,z,-x
-z-1/2,y-1/2,-x-1/2
z-1/2,-y-1/2,-x-1/2
loop_
_atom_site_label
_atom_site_type_symbol
_atom_site_fract_x
_atom_site_fract_y
_atom_site_fract_z
_atom_site_occupancy
_atom_site_U_iso_or_equiv
Mo2 Mo 0.25 0 0.5 0.4 0.0
Tc2 Tc 0.25 0 0.5 0.6 0.0
Mo1 Mo 0 0 0 0.4 0.0
Tc1 Tc 0 0 0 0.6 0.0
