#------------------------------------------------------------------------------
#$Date: 2015-07-10 19:34:34 +0300 (Fri, 10 Jul 2015) $
#$Revision: 142987 $
#$URL: svn://www.crystallography.net/cod/cif/1/52/27/1522717.cif $
#------------------------------------------------------------------------------
#
# This file is available in the Crystallography Open Database (COD),
# http://www.crystallography.net/
#
# All data on this site have been placed in the public domain by the
# contributors.
#
data_1522717
loop_
_publ_author_name
'Popova, S.V.'
_publ_section_title
;
 Crystal chemistry of some germanium and gallium compounds
;
_journal_name_full               'Fizika Tekhnika Vysokikh Davlenij'
_journal_page_first              3
_journal_page_last               12
_journal_volume                  11
_journal_year                    1983
_chemical_formula_sum            'Ga0.4 Re0.6'
_chemical_name_systematic        '(Ga0.4 Re0.6)'
_space_group_IT_number           194
_symmetry_space_group_name_Hall  '-P 6c 2c'
_symmetry_space_group_name_H-M   'P 63/m m c'
_cell_angle_alpha                90
_cell_angle_beta                 90
_cell_angle_gamma                120
_cell_formula_units_Z            2
_cell_length_a                   2.823
_cell_length_b                   2.823
_cell_length_c                   4.238
_cell_volume                     29.249
_citation_journal_id_ASTM        FTVDDZ
_cod_data_source_file            Popova_FTVDDZ_1983_338.cif
_cod_data_source_block           Ga0.4Re0.6
_cod_original_cell_volume        29.24916
_cod_database_code               1522717
loop_
_symmetry_equiv_pos_as_xyz
x,y,z
x-y,x,z+1/2
-y,x-y,z
-x,-y,z+1/2
-x+y,-x,z
y,-x+y,z+1/2
-y,-x,-z+1/2
x-y,-y,-z
x,x-y,-z+1/2
y,x,-z
-x+y,y,-z+1/2
-x,-x+y,-z
-x,-y,-z
-x+y,-x,-z-1/2
y,-x+y,-z
x,y,-z-1/2
x-y,x,-z
-y,x-y,-z-1/2
y,x,z-1/2
-x+y,y,z
-x,-x+y,z-1/2
-y,-x,z
x-y,-y,z-1/2
x,x-y,z
loop_
_atom_site_label
_atom_site_type_symbol
_atom_site_fract_x
_atom_site_fract_y
_atom_site_fract_z
_atom_site_occupancy
_atom_site_U_iso_or_equiv
Re1 Re 0.3333 0.6667 0.25 0.6 0.0
Ga1 Ga 0.3333 0.6667 0.25 0.4 0.0
