#------------------------------------------------------------------------------
#$Date: 2015-07-10 22:10:41 +0300 (Fri, 10 Jul 2015) $
#$Revision: 143084 $
#$URL: svn://www.crystallography.net/cod/cif/1/52/28/1522801.cif $
#------------------------------------------------------------------------------
#
# This file is available in the Crystallography Open Database (COD),
# http://www.crystallography.net/
#
# All data on this site have been placed in the public domain by the
# contributors.
#
data_1522801
loop_
_publ_author_name
'Rudman, P.S.'
_publ_section_title
;
 Lattice parameters of some h.c.p. binary alloys of rhenium and osmium.
 Re-W, Re-Ir, Re-Pt, Os-Ir, Os-Pt
;
_journal_name_full               'Journal of the Less-Common Metals'
_journal_page_first              79
_journal_page_last               81
_journal_volume                  12
_journal_year                    1967
_chemical_formula_sum            'Os0.9 Pt0.1'
_chemical_name_systematic        '(Os0.9 Pt0.1)'
_space_group_IT_number           194
_symmetry_space_group_name_Hall  '-P 6c 2c'
_symmetry_space_group_name_H-M   'P 63/m m c'
_cell_angle_alpha                90
_cell_angle_beta                 90
_cell_angle_gamma                120
_cell_formula_units_Z            2
_cell_length_a                   2.7361
_cell_length_b                   2.7361
_cell_length_c                   4.3247
_cell_volume                     28.038
_citation_journal_id_ASTM        JCOMAH
_cod_data_source_file            Rudman_JCOMAH_1967_1649.cif
_cod_data_source_block           Os0.9Pt0.1
_cod_original_cell_volume        28.03823
_cod_database_code               1522801
loop_
_symmetry_equiv_pos_as_xyz
x,y,z
x-y,x,z+1/2
-y,x-y,z
-x,-y,z+1/2
-x+y,-x,z
y,-x+y,z+1/2
-y,-x,-z+1/2
x-y,-y,-z
x,x-y,-z+1/2
y,x,-z
-x+y,y,-z+1/2
-x,-x+y,-z
-x,-y,-z
-x+y,-x,-z-1/2
y,-x+y,-z
x,y,-z-1/2
x-y,x,-z
-y,x-y,-z-1/2
y,x,z-1/2
-x+y,y,z
-x,-x+y,z-1/2
-y,-x,z
x-y,-y,z-1/2
x,x-y,z
loop_
_atom_site_label
_atom_site_type_symbol
_atom_site_fract_x
_atom_site_fract_y
_atom_site_fract_z
_atom_site_occupancy
_atom_site_U_iso_or_equiv
Os1 Os 0.3333 0.6667 0.25 0.9 0.0
Pt1 Pt 0.3333 0.6667 0.25 0.1 0.0
