#------------------------------------------------------------------------------
#$Date: 2016-02-13 21:28:24 +0200 (Sat, 13 Feb 2016) $
#$Revision: 176429 $
#$URL: svn://www.crystallography.net/cod/cif/1/52/22/1522202.cif $
#------------------------------------------------------------------------------
#
# This file is available in the Crystallography Open Database (COD),
# http://www.crystallography.net/
#
# All data on this site have been placed in the public domain by the
# contributors.
#
data_1522202
loop_
_publ_author_name
'Kren, E.'
'Kadar, G.'
'Tarnoczi, T.'
'Pal, L.'
'Solyom, J.'
'Szabo, P.'
_publ_section_title
;
 Magnetic structures and exchange interactions in the Mn-Pt system
;
_journal_name_full
'Physical Review (1,1893-132,1963/141,1966-188,1969)'
_journal_page_first              574
_journal_page_last               585
_journal_volume                  171
_journal_year                    1968
_chemical_formula_sum            'Mn3 Pt'
_chemical_name_systematic        'Mn3 Pt'
_space_group_IT_number           221
_symmetry_space_group_name_Hall  '-P 4 2 3'
_symmetry_space_group_name_H-M   'P m -3 m'
_cell_angle_alpha                90
_cell_angle_beta                 90
_cell_angle_gamma                90
_cell_formula_units_Z            1
_cell_length_a                   3.833
_cell_length_b                   3.833
_cell_length_c                   3.833
_cell_volume                     56.314
_citation_journal_id_ASTM        PHRVAO
_cod_data_source_file            Kren_PHRVAO_1968_1156.cif
_cod_data_source_block           Mn3Pt1
_cod_original_cell_volume        56.31401
_cod_original_formula_sum        'Mn3 Pt1'
_cod_database_code               1522202
loop_
_symmetry_equiv_pos_as_xyz
x,y,z
-y,x,z
-x,-y,z
y,-x,z
x,-y,-z
y,x,-z
-x,y,-z
-y,-x,-z
z,x,y
-x,z,y
-z,-x,y
x,-z,y
z,-x,-y
x,z,-y
-z,x,-y
-x,-z,-y
y,z,x
y,-z,-x
z,y,-x
-y,z,-x
-z,-y,-x
-y,-z,x
z,-y,x
-z,y,x
-x,-y,-z
y,-x,-z
x,y,-z
-y,x,-z
-x,y,z
-y,-x,z
x,-y,z
y,x,z
-z,-x,-y
x,-z,-y
z,x,-y
-x,z,-y
-z,x,y
-x,-z,y
z,-x,y
x,z,y
-y,-z,-x
-y,z,x
-z,-y,x
y,-z,x
z,y,x
y,z,-x
-z,y,-x
z,-y,-x
loop_
_atom_site_label
_atom_site_type_symbol
_atom_site_fract_x
_atom_site_fract_y
_atom_site_fract_z
_atom_site_occupancy
_atom_site_U_iso_or_equiv
Pt1 Pt 0 0 0 1 0.0
Mn1 Mn 0 0.5 0.5 1 0.0
