#------------------------------------------------------------------------------
#$Date: 2015-07-10 19:20:04 +0300 (Fri, 10 Jul 2015) $
#$Revision: 142908 $
#$URL: svn://www.crystallography.net/cod/cif/1/52/26/1522644.cif $
#------------------------------------------------------------------------------
#
# This file is available in the Crystallography Open Database (COD),
# http://www.crystallography.net/
#
# All data on this site have been placed in the public domain by the
# contributors.
#
data_1522644
loop_
_publ_author_name
'Oya, Y.'
'Mishima, Y.'
'Suzuki, T.'
_publ_section_title
;
 The Pt-Al and Pt-Ga phase diagram with emphasis on the polymorphism of
 Pt3 Al amd Pt3 Ga
;
_journal_name_full               'Zeitschrift fuer Metallkunde'
_journal_page_first              485
_journal_page_last               490
_journal_volume                  78
_journal_year                    1987
_chemical_formula_sum            'Ga1.08 Pt2.92'
_chemical_name_systematic        'Ga1.08 Pt2.92'
_space_group_IT_number           221
_symmetry_space_group_name_Hall  '-P 4 2 3'
_symmetry_space_group_name_H-M   'P m -3 m'
_cell_angle_alpha                90
_cell_angle_beta                 90
_cell_angle_gamma                90
_cell_formula_units_Z            1
_cell_length_a                   3.8925
_cell_length_b                   3.8925
_cell_length_c                   3.8925
_cell_volume                     58.977
_citation_journal_id_ASTM        ZEMTAE
_cod_data_source_file            Oya_ZEMTAE_1987_316.cif
_cod_data_source_block           Ga1.08Pt2.92
_cod_original_cell_volume        58.97743
_cod_database_code               1522644
loop_
_symmetry_equiv_pos_as_xyz
x,y,z
-y,x,z
-x,-y,z
y,-x,z
x,-y,-z
y,x,-z
-x,y,-z
-y,-x,-z
z,x,y
-x,z,y
-z,-x,y
x,-z,y
z,-x,-y
x,z,-y
-z,x,-y
-x,-z,-y
y,z,x
y,-z,-x
z,y,-x
-y,z,-x
-z,-y,-x
-y,-z,x
z,-y,x
-z,y,x
-x,-y,-z
y,-x,-z
x,y,-z
-y,x,-z
-x,y,z
-y,-x,z
x,-y,z
y,x,z
-z,-x,-y
x,-z,-y
z,x,-y
-x,z,-y
-z,x,y
-x,-z,y
z,-x,y
x,z,y
-y,-z,-x
-y,z,x
-z,-y,x
y,-z,x
z,y,x
y,z,-x
-z,y,-x
z,-y,-x
loop_
_atom_site_label
_atom_site_type_symbol
_atom_site_fract_x
_atom_site_fract_y
_atom_site_fract_z
_atom_site_occupancy
_atom_site_U_iso_or_equiv
Ga1 Ga 0 0 0 1 0.0
Ga2 Ga 0 0.5 0.5 0.027 0.0
Pt1 Pt 0 0.5 0.5 0.973 0.0
