#------------------------------------------------------------------------------
#$Date: 2015-07-10 16:10:07 +0300 (Fri, 10 Jul 2015) $
#$Revision: 142519 $
#$URL: svn://www.crystallography.net/cod/cif/1/52/22/1522298.cif $
#------------------------------------------------------------------------------
#
# This file is available in the Crystallography Open Database (COD),
# http://www.crystallography.net/
#
# All data on this site have been placed in the public domain by the
# contributors.
#
data_1522298
loop_
_publ_author_name
'Krug, M.P.'
'Davis, B.E.'
_publ_section_title
;
 The anisotropic thermal expansion of the crystal lattice of hafnium
;
_journal_name_full               'Journal of the Less-Common Metals'
_journal_page_first              363
_journal_page_last               366
_journal_volume                  22
_journal_year                    1970
_chemical_formula_sum            'Hf0.96 Zr0.04'
_chemical_name_systematic        '(Hf0.96 Zr0.04)'
_space_group_IT_number           194
_symmetry_space_group_name_Hall  '-P 6c 2c'
_symmetry_space_group_name_H-M   'P 63/m m c'
_cell_angle_alpha                90
_cell_angle_beta                 90
_cell_angle_gamma                120
_cell_formula_units_Z            2
_cell_length_a                   3.1956
_cell_length_b                   3.1956
_cell_length_c                   5.0546
_cell_volume                     44.702
_citation_journal_id_ASTM        JCOMAH
_cod_data_source_file            Krug_JCOMAH_1970_613.cif
_cod_data_source_block           Hf0.96Zr0.04
_cod_original_cell_volume        44.70152
_cod_database_code               1522298
loop_
_symmetry_equiv_pos_as_xyz
x,y,z
x-y,x,z+1/2
-y,x-y,z
-x,-y,z+1/2
-x+y,-x,z
y,-x+y,z+1/2
-y,-x,-z+1/2
x-y,-y,-z
x,x-y,-z+1/2
y,x,-z
-x+y,y,-z+1/2
-x,-x+y,-z
-x,-y,-z
-x+y,-x,-z-1/2
y,-x+y,-z
x,y,-z-1/2
x-y,x,-z
-y,x-y,-z-1/2
y,x,z-1/2
-x+y,y,z
-x,-x+y,z-1/2
-y,-x,z
x-y,-y,z-1/2
x,x-y,z
loop_
_atom_site_label
_atom_site_type_symbol
_atom_site_fract_x
_atom_site_fract_y
_atom_site_fract_z
_atom_site_occupancy
_atom_site_U_iso_or_equiv
Zr1 Zr 0.3333 0.6667 0.25 0.04 0.0
Hf1 Hf 0.3333 0.6667 0.25 0.96 0.0
