#------------------------------------------------------------------------------
#$Date: 2016-02-14 06:40:26 +0200 (Sun, 14 Feb 2016) $
#$Revision: 176432 $
#$URL: svn://www.crystallography.net/cod/cif/7/20/25/7202529.cif $
#------------------------------------------------------------------------------
#
# This file is available in the Crystallography Open Database (COD),
# http://www.crystallography.net/
#
# All data on this site have been placed in the public domain by the
# contributors.
#
data_7202529
loop_
_publ_author_name
'McCabe, E. E.'
'Jones, I. P.'
'Zhang, D.'
'Hyatt, N. C.'
'Greaves, C.'
_publ_section_title
;
 Crystal structure and electrical characterisation of Bi2NbO5F: an
 Aurivillius oxide fluoride
;
_journal_issue                   12
_journal_name_full               'Journal of Materials Chemistry'
_journal_page_first              1193
_journal_paper_doi               10.1039/b613970a
_journal_volume                  17
_journal_year                    2007
_chemical_formula_sum            'Bi F3'
_chemical_formula_weight         265.97
_chemical_name_systematic        BiF3
_space_group_IT_number           225
_symmetry_cell_setting           cubic
_symmetry_space_group_name_Hall  '-F 4 2 3'
_symmetry_space_group_name_H-M   'F m -3 m'
_cell_angle_alpha                90.0
_cell_angle_beta                 90.0
_cell_angle_gamma                90.0
_cell_formula_units_Z            4
_cell_length_a                   5.7853(23)
_cell_length_b                   5.7853
_cell_length_c                   5.7853
_cell_measurement_temperature    295
_cell_volume                     193.63(8)
_pd_block_id                     2006-11-24T08:49|PBCA-295K-O2_phase3|emma||
_pd_char_particle_morphology     powder
_pd_phase_name                   BiF3
_cod_data_source_file            b613970a1.txt
_cod_data_source_block           PBCA-295K-O2_phase_3
_cod_depositor_comments
;
The following automatic conversions were performed:
'_geom_angle_publ_flag' value 'N' changed to 'n' according to
'/home/saulius/struct/CIF-dictionaries/cif_core.dic' dictionary named
'cif_core.dic' version 2.4.1 from 2010-06-29 (34
times).

'_geom_bond_publ_flag' value 'N' changed to 'n' according to
'/home/saulius/struct/CIF-dictionaries/cif_core.dic' dictionary named
'cif_core.dic' version 2.4.1 from 2010-06-29 (54 times).

Automatic conversion script
Id: cif_fix_enum 1527 2010-12-29 10:47:43Z saulius 
;
_cod_original_cell_volume        193.63(11)
_cod_original_sg_symbol_Hall     Fm-3m
_cod_database_code               7202529
loop_
_symmetry_equiv_pos_site_id
_symmetry_equiv_pos_as_xyz
1 +x,+y,+z
2 +z,+x,+y
3 +y,+z,+x
4 +x,+y,-z
5 -z,+x,+y
6 +y,-z,+x
7 -z,+x,-y
8 -y,-z,+x
9 +y,-z,-x
10 -x,+y,-z
11 -z,-x,+y
12 +x,-y,-z
13 +y,+x,+z
14 +z,+y,+x
15 +x,+z,+y
16 +y,+x,-z
17 -z,+y,+x
18 +x,-z,+y
19 -z,+y,-x
20 -x,-z,+y
21 +x,-z,-y
22 -y,+x,-z
23 -z,-y,+x
24 +y,-x,-z
-1 -x,-y,-z
-2 -z,-x,-y
-3 -y,-z,-x
-4 -x,-y,+z
-5 +z,-x,-y
-6 -y,+z,-x
-7 +z,-x,+y
-8 +y,+z,-x
-9 -y,+z,+x
-10 +x,-y,+z
-11 +z,+x,-y
-12 -x,+y,+z
-13 -y,-x,-z
-14 -z,-y,-x
-15 -x,-z,-y
-16 -y,-x,+z
-17 +z,-y,-x
-18 -x,+z,-y
-19 +z,-y,+x
-20 +x,+z,-y
-21 -x,+z,+y
-22 +y,-x,+z
-23 +z,+y,-x
-24 -y,+x,+z
101 +x,+y+1/2,+z+1/2
102 +z,+x+1/2,+y+1/2
103 +y,+z+1/2,+x+1/2
104 +x,+y+1/2,-z+1/2
105 -z,+x+1/2,+y+1/2
106 +y,-z+1/2,+x+1/2
107 -z,+x+1/2,-y+1/2
108 -y,-z+1/2,+x+1/2
109 +y,-z+1/2,-x+1/2
110 -x,+y+1/2,-z+1/2
111 -z,-x+1/2,+y+1/2
112 +x,-y+1/2,-z+1/2
113 +y,+x+1/2,+z+1/2
114 +z,+y+1/2,+x+1/2
115 +x,+z+1/2,+y+1/2
116 +y,+x+1/2,-z+1/2
117 -z,+y+1/2,+x+1/2
118 +x,-z+1/2,+y+1/2
119 -z,+y+1/2,-x+1/2
120 -x,-z+1/2,+y+1/2
121 +x,-z+1/2,-y+1/2
122 -y,+x+1/2,-z+1/2
123 -z,-y+1/2,+x+1/2
124 +y,-x+1/2,-z+1/2
-101 -x,-y+1/2,-z+1/2
-102 -z,-x+1/2,-y+1/2
-103 -y,-z+1/2,-x+1/2
-104 -x,-y+1/2,+z+1/2
-105 +z,-x+1/2,-y+1/2
-106 -y,+z+1/2,-x+1/2
-107 +z,-x+1/2,+y+1/2
-108 +y,+z+1/2,-x+1/2
-109 -y,+z+1/2,+x+1/2
-110 +x,-y+1/2,+z+1/2
-111 +z,+x+1/2,-y+1/2
-112 -x,+y+1/2,+z+1/2
-113 -y,-x+1/2,-z+1/2
-114 -z,-y+1/2,-x+1/2
-115 -x,-z+1/2,-y+1/2
-116 -y,-x+1/2,+z+1/2
-117 +z,-y+1/2,-x+1/2
-118 -x,+z+1/2,-y+1/2
-119 +z,-y+1/2,+x+1/2
-120 +x,+z+1/2,-y+1/2
-121 -x,+z+1/2,+y+1/2
-122 +y,-x+1/2,+z+1/2
-123 +z,+y+1/2,-x+1/2
-124 -y,+x+1/2,+z+1/2
201 +x+1/2,+y,+z+1/2
202 +z+1/2,+x,+y+1/2
203 +y+1/2,+z,+x+1/2
204 +x+1/2,+y,-z+1/2
205 -z+1/2,+x,+y+1/2
206 +y+1/2,-z,+x+1/2
207 -z+1/2,+x,-y+1/2
208 -y+1/2,-z,+x+1/2
209 +y+1/2,-z,-x+1/2
210 -x+1/2,+y,-z+1/2
211 -z+1/2,-x,+y+1/2
212 +x+1/2,-y,-z+1/2
213 +y+1/2,+x,+z+1/2
214 +z+1/2,+y,+x+1/2
215 +x+1/2,+z,+y+1/2
216 +y+1/2,+x,-z+1/2
217 -z+1/2,+y,+x+1/2
218 +x+1/2,-z,+y+1/2
219 -z+1/2,+y,-x+1/2
220 -x+1/2,-z,+y+1/2
221 +x+1/2,-z,-y+1/2
222 -y+1/2,+x,-z+1/2
223 -z+1/2,-y,+x+1/2
224 +y+1/2,-x,-z+1/2
-201 -x+1/2,-y,-z+1/2
-202 -z+1/2,-x,-y+1/2
-203 -y+1/2,-z,-x+1/2
-204 -x+1/2,-y,+z+1/2
-205 +z+1/2,-x,-y+1/2
-206 -y+1/2,+z,-x+1/2
-207 +z+1/2,-x,+y+1/2
-208 +y+1/2,+z,-x+1/2
-209 -y+1/2,+z,+x+1/2
-210 +x+1/2,-y,+z+1/2
-211 +z+1/2,+x,-y+1/2
-212 -x+1/2,+y,+z+1/2
-213 -y+1/2,-x,-z+1/2
-214 -z+1/2,-y,-x+1/2
-215 -x+1/2,-z,-y+1/2
-216 -y+1/2,-x,+z+1/2
-217 +z+1/2,-y,-x+1/2
-218 -x+1/2,+z,-y+1/2
-219 +z+1/2,-y,+x+1/2
-220 +x+1/2,+z,-y+1/2
-221 -x+1/2,+z,+y+1/2
-222 +y+1/2,-x,+z+1/2
-223 +z+1/2,+y,-x+1/2
-224 -y+1/2,+x,+z+1/2
301 +x+1/2,+y+1/2,+z
302 +z+1/2,+x+1/2,+y
303 +y+1/2,+z+1/2,+x
304 +x+1/2,+y+1/2,-z
305 -z+1/2,+x+1/2,+y
306 +y+1/2,-z+1/2,+x
307 -z+1/2,+x+1/2,-y
308 -y+1/2,-z+1/2,+x
309 +y+1/2,-z+1/2,-x
310 -x+1/2,+y+1/2,-z
311 -z+1/2,-x+1/2,+y
312 +x+1/2,-y+1/2,-z
313 +y+1/2,+x+1/2,+z
314 +z+1/2,+y+1/2,+x
315 +x+1/2,+z+1/2,+y
316 +y+1/2,+x+1/2,-z
317 -z+1/2,+y+1/2,+x
318 +x+1/2,-z+1/2,+y
319 -z+1/2,+y+1/2,-x
320 -x+1/2,-z+1/2,+y
321 +x+1/2,-z+1/2,-y
322 -y+1/2,+x+1/2,-z
323 -z+1/2,-y+1/2,+x
324 +y+1/2,-x+1/2,-z
-301 -x+1/2,-y+1/2,-z
-302 -z+1/2,-x+1/2,-y
-303 -y+1/2,-z+1/2,-x
-304 -x+1/2,-y+1/2,+z
-305 +z+1/2,-x+1/2,-y
-306 -y+1/2,+z+1/2,-x
-307 +z+1/2,-x+1/2,+y
-308 +y+1/2,+z+1/2,-x
-309 -y+1/2,+z+1/2,+x
-310 +x+1/2,-y+1/2,+z
-311 +z+1/2,+x+1/2,-y
-312 -x+1/2,+y+1/2,+z
-313 -y+1/2,-x+1/2,-z
-314 -z+1/2,-y+1/2,-x
-315 -x+1/2,-z+1/2,-y
-316 -y+1/2,-x+1/2,+z
-317 +z+1/2,-y+1/2,-x
-318 -x+1/2,+z+1/2,-y
-319 +z+1/2,-y+1/2,+x
-320 +x+1/2,+z+1/2,-y
-321 -x+1/2,+z+1/2,+y
-322 +y+1/2,-x+1/2,+z
-323 +z+1/2,+y+1/2,-x
-324 -y+1/2,+x+1/2,+z
loop_
_atom_site_type_symbol
_atom_site_label
_atom_site_fract_x
_atom_site_fract_y
_atom_site_fract_z
_atom_site_occupancy
_atom_site_thermal_displace_type
_atom_site_U_iso_or_equiv
_atom_site_symmetry_multiplicity
Bi Bi 0.0 0.0 0.0 1.0 Uiso 0.01 4
F F1 0.5 0.5 0.5 1.0 Uiso 0.01 4
F F2 0.25 0.25 0.25 1.0 Uiso 0.01 8
loop_
_atom_type_symbol
_atom_type_number_in_cell
Bi 4.0
F 12.0
loop_
_geom_angle_atom_site_label_1
_geom_angle_atom_site_label_2
_geom_angle_atom_site_label_3
_geom_angle
_geom_angle_site_symmetry_1
_geom_angle_site_symmetry_2
_geom_angle_site_symmetry_3
_geom_angle_publ_flag
F2 Bi F2 70.529(31) 1_555 . 4_555 n
F2 Bi F2 70.529(15) 1_555 . 5_555 n
F2 Bi F2 70.529(15) 1_555 . 6_555 n
F2 Bi F2 109.471(15) 1_555 . 7_555 n
F2 Bi F2 109.471(31) 1_555 . 8_555 n
F2 Bi F2 109.471(15) 1_555 . 9_555 n
F2 Bi F2 180.0 1_555 . -1_555 n
F2 Bi F2 109.471(15) 4_555 . 5_555 n
F2 Bi F2 109.471(15) 4_555 . 6_555 n
F2 Bi F2 70.529(15) 4_555 . 7_555 n
F2 Bi F2 180.0 4_555 . 8_555 n
F2 Bi F2 70.529(15) 4_555 . 9_555 n
F2 Bi F2 109.471(31) 4_555 . -1_555 n
F2 Bi F2 109.471(31) 5_555 . 6_555 n
F2 Bi F2 70.529(31) 5_555 . 7_555 n
F2 Bi F2 70.529(15) 5_555 . 8_555 n
F2 Bi F2 180.0 5_555 . 9_555 n
F2 Bi F2 109.471(15) 5_555 . -1_555 n
F2 Bi F2 180.0 6_555 . 7_555 n
F2 Bi F2 70.529(15) 6_555 . 8_555 n
F2 Bi F2 70.529(31) 6_555 . 9_555 n
F2 Bi F2 109.471(15) 6_555 . -1_555 n
F2 Bi F2 109.471(15) 7_555 . 8_555 n
F2 Bi F2 109.471(31) 7_555 . 9_555 n
F2 Bi F2 70.529(15) 7_555 . -1_555 n
F2 Bi F2 109.471(15) 8_555 . 9_555 n
F2 Bi F2 70.529(31) 8_555 . -1_555 n
F2 Bi F2 70.529(15) 9_555 . -1_555 n
Bi F2 Bi 109.471(15) 1_555 . 101_555 n
Bi F2 Bi 109.471(15) 1_555 . 201_555 n
Bi F2 Bi 109.471(31) 1_555 . 301_555 n
Bi F2 Bi 109.471(31) 101_555 . 201_555 n
Bi F2 Bi 109.471(15) 101_555 . 301_555 n
Bi F2 Bi 109.471(15) 201_555 . 301_555 n
loop_
_geom_bond_atom_site_label_1
_geom_bond_atom_site_label_2
_geom_bond_distance
_geom_bond_site_symmetry_1
_geom_bond_site_symmetry_2
_geom_bond_publ_flag
Bi Bi 5.7853(23) . 1_455 n
Bi Bi 5.7853(23) . 1_545 n
Bi Bi 5.7853(23) . 1_554 n
Bi Bi 5.7853(23) . 1_556 n
Bi Bi 5.7853(23) . 1_565 n
Bi Bi 5.7853(23) . 1_655 n
Bi Bi 4.0908(12) . 101_544 n
Bi Bi 4.0908(12) . 101_545 n
Bi Bi 4.0908(12) . 101_554 n
Bi Bi 4.0908(12) . 101_555 n
Bi Bi 4.0908(12) . 201_454 n
Bi Bi 4.0908(12) . 201_455 n
Bi Bi 4.0908(12) . 201_554 n
Bi Bi 4.0908(12) . 201_555 n
Bi Bi 4.0908(17) . 301_445 n
Bi Bi 4.0908(17) . 301_455 n
Bi Bi 4.0908(17) . 301_545 n
Bi Bi 4.0908(17) . 301_555 n
Bi F1 2.8927(12) . 101_444 n
Bi F1 2.8927(12) . 101_544 n
Bi F1 2.8927(12) . 201_444 n
Bi F1 2.8927(12) . 201_454 n
Bi F1 2.8927(12) . 301_444 n
Bi F1 2.8927(12) . 301_445 n
Bi F2 2.5051(8) . 1_555 n
Bi F2 2.5051(8) . 4_555 n
Bi F2 2.5051(8) . 5_555 n
Bi F2 2.5051(8) . 6_555 n
Bi F2 2.5051(8) . 7_555 n
Bi F2 2.5051(8) . 8_555 n
Bi F2 2.5051(8) . 9_555 n
Bi F2 2.5051(8) . -1_555 n
F1 Bi 2.8927(12) . 101_555 n
F1 Bi 2.8927(12) . 101_655 n
F1 Bi 2.8927(12) . 201_555 n
F1 Bi 2.8927(12) . 201_565 n
F1 Bi 2.8927(12) . 301_555 n
F1 Bi 2.8927(12) . 301_556 n
F1 F2 2.5051(8) . 1_555 n
F1 F2 2.5051(8) . 4_556 n
F1 F2 2.5051(8) . 5_655 n
F1 F2 2.5051(8) . 6_565 n
F1 F2 2.5051(8) . 7_656 n
F1 F2 2.5051(8) . 8_665 n
F1 F2 2.5051(8) . 9_566 n
F1 F2 2.5051(8) . -1_666 n
F2 Bi 2.5051(8) . 1_555 n
F2 Bi 2.5051(8) . 101_555 n
F2 Bi 2.5051(8) . 201_555 n
F2 Bi 2.5051(8) . 301_555 n
F2 F1 2.5051(8) . 1_555 n
F2 F1 2.5051(8) . 101_544 n
F2 F1 2.5051(8) . 201_454 n
F2 F1 2.5051(8) . 301_445 n
loop_
_pd_block_diffractogram_id
2006-11-24T08:49|PBCA-295K-O2_H_01|emma|NPD-NFL
