#------------------------------------------------------------------------------
#$Date: 2016-02-16 14:49:47 +0200 (Tue, 16 Feb 2016) $
#$Revision: 176465 $
#$URL: svn://www.crystallography.net/cod/cif/9/00/50/9005022.cif $
#------------------------------------------------------------------------------
#
# This file is available in the Crystallography Open Database (COD),
# http://www.crystallography.net/. The original data for this entry
# were provided the American Mineralogist Crystal Structure Database,
# http://rruff.geo.arizona.edu/AMS/amcsd.php
#
# The file may be used within the scientific community so long as
# proper attribution is given to the journal article from which the
# data were obtained.
#
data_9005022
loop_
_publ_author_name
'Kihara, K.'
_publ_section_title
;
 An X-ray study of the temperature dependence of the quartz structure
 Sample: at T = 773 K
;
_journal_name_full               'European Journal of Mineralogy'
_journal_page_first              63
_journal_page_last               77
_journal_paper_doi               10.1127/ejm/2/1/0063
_journal_volume                  2
_journal_year                    1990
_chemical_formula_sum            'O2 Si'
_chemical_name_mineral           Quartz
_symmetry_space_group_name_H-M   'P 32 2 1'
_cell_angle_alpha                90
_cell_angle_beta                 90
_cell_angle_gamma                120
_cell_length_a                   4.9628
_cell_length_b                   4.9628
_cell_length_c                   5.4360
_cell_volume                     115.948
_diffrn_ambient_temperature      773
_exptl_crystal_density_diffrn    2.581
_cod_original_formula_sum        'Si O2'
_cod_database_code               9005022
loop_
_symmetry_equiv_pos_as_xyz
x,y,z
y,x,2/3-z
-y,x-y,2/3+z
-x,-x+y,1/3-z
-x+y,-x,1/3+z
x-y,-y,-z
loop_
_atom_site_aniso_label
_atom_site_aniso_U_11
_atom_site_aniso_U_22
_atom_site_aniso_U_33
_atom_site_aniso_U_12
_atom_site_aniso_U_13
_atom_site_aniso_U_23
Si 0.01853 0.01422 0.01602 0.00711 -0.00012 -0.00024
O 0.04220 0.03406 0.03338 0.02452 -0.00604 -0.01574
loop_
_atom_site_label
_atom_site_fract_x
_atom_site_fract_y
_atom_site_fract_z
Si 0.47910 0.00000 0.00000
O 0.41590 0.25030 0.13210
